       N       E                     dE             d eps       ncg     rms          ort
SDA:   1    -0.716010820239E+02   -0.71601E+02   -0.36750E-03  6912   0.919E-03 0.000E+00
DMP:   2    -0.716013697380E+02   -0.28771E-03   -0.21379E-03  6912   0.331E-03 0.532E-03
DMP:   3    -0.716015139840E+02   -0.14425E-03   -0.45342E-04  6912   0.420E-04 0.187E-03
DMP:   4    -0.716015348104E+02   -0.20826E-04    0.52688E-06  6912   0.219E-05-0.917E-05
DMP:   5    -0.716015311847E+02    0.36257E-05   -0.99801E-06  6912   0.890E-05-0.168E-04
DMP:   6    -0.716015319677E+02   -0.78301E-06   -0.30385E-05  6912   0.705E-05 0.144E-05
DMP:   7    -0.716015343557E+02   -0.23880E-05   -0.17033E-05  6912   0.260E-05 0.434E-05
DMP:   8    -0.716015355697E+02   -0.12140E-05   -0.51810E-06  6912   0.609E-06 0.180E-05
DMP:   9    -0.716015359109E+02   -0.34116E-06   -0.12861E-06  6912   0.172E-06 0.393E-06
   1 F= -.71601536E+02 E0= -.71601536E+02  d E =-.551285E-12  mag=     0.0000
 imaginary and real dielectric function
