 vasp.5.4.4.18Apr17-6-g9f103f2a35 (build May 10 2018 13:40:55) complex          
  
 executed on             LinuxIFC date 2018.11.16  06:39:35
 running on  320 total cores
 distrk:  each k-point on   32 cores,   10 groups
 distr:  one band on NCORES_PER_BAND=   1 cores,   32 groups


--------------------------------------------------------------------------------------------------------


 INCAR:
 POTCAR:    PAW_PBE Cl 06Sep2000                  
 POTCAR:    PAW_PBE Ag 02Apr2005                  
 POTCAR:    PAW_PBE Cu 22Jun2005                  
 POTCAR:    PAW_PBE Cs_sv 08Apr2002               

 ----------------------------------------------------------------------------- 
|                                                                             |
|           W    W    AA    RRRRR   N    N  II  N    N   GGGG   !!!           |
|           W    W   A  A   R    R  NN   N  II  NN   N  G    G  !!!           |
|           W    W  A    A  R    R  N N  N  II  N N  N  G       !!!           |
|           W WW W  AAAAAA  RRRRR   N  N N  II  N  N N  G  GGG   !            |
|           WW  WW  A    A  R   R   N   NN  II  N   NN  G    G                |
|           W    W  A    A  R    R  N    N  II  N    N   GGGG   !!!           |
|                                                                             |
|      For optimal performance we recommend to set                            |
|        NCORE= 4 - approx SQRT( number of cores)                             |
|      NCORE specifies how many cores store one orbital (NPAR=cpu/NCORE).     |
|      This setting can  greatly improve the performance of VASP for DFT.     |
|      The default,   NCORE=1            might be grossly inefficient         |
|      on modern multi-core architectures or massively parallel machines.     |
|      Do your own testing !!!!                                               |
|      Unfortunately you need to use the default for GW and RPA calculations. |
|      (for HF NCORE is supported but not extensively tested yet)             |
|                                                                             |
 ----------------------------------------------------------------------------- 


 ----------------------------------------------------------------------------- 
|                                                                             |
|           W    W    AA    RRRRR   N    N  II  N    N   GGGG   !!!           |
|           W    W   A  A   R    R  NN   N  II  NN   N  G    G  !!!           |
|           W    W  A    A  R    R  N N  N  II  N N  N  G       !!!           |
|           W WW W  AAAAAA  RRRRR   N  N N  II  N  N N  G  GGG   !            |
|           WW  WW  A    A  R   R   N   NN  II  N   NN  G    G                |
|           W    W  A    A  R    R  N    N  II  N    N   GGGG   !!!           |
|                                                                             |
|      You have enabled k-point parallelism (KPAR>1).                         |
|      This developmental code was originally  written by Paul Kent at ORNL,  |
|      and carefully double checked in Vienna.                                |
|      GW as well as linear response parallelism added by Martijn Marsman     |
|      and Georg Kresse.                                                      |
|      Carefully verify results versus KPAR=1.                                |
|      Report problems to Paul Kent and Vienna.                               |
|                                                                             |
 ----------------------------------------------------------------------------- 

 POTCAR:    PAW_PBE Cl 06Sep2000                  
   VRHFIN =Cl: s2p5                                                             
   LEXCH  = PE                                                                  
   EATOM  =   409.7259 eV,   30.1140 Ry                                         
                                                                                
   TITEL  = PAW_PBE Cl 06Sep2000                                                
   LULTRA =        F    use ultrasoft PP ?                                      
   IUNSCR =        1    unscreen: 0-lin 1-nonlin 2-no                           
   RPACOR =    1.500    partial core radius                                     
   POMASS =   35.453; ZVAL   =    7.000    mass and valenz                      
   RCORE  =    1.900    outmost cutoff radius                                   
   RWIGS  =    2.100; RWIGS  =    1.111    wigner-seitz radius (au A)           
   ENMAX  =  262.472; ENMIN  =  196.854 eV                                      
   ICORE  =        2    local potential                                         
   LCOR   =        T    correct aug charges                                     
   LPAW   =        T    paw PP                                                  
   EAUG   =  356.192                                                            
   DEXC   =    0.000                                                            
   RMAX   =    1.945    core radius for proj-oper                               
   RAUG   =    1.300    factor for augmentation sphere                          
   RDEP   =    2.020    radius for radial grids                                 
   RDEPT  =    1.678    core radius for aug-charge                              
                                                                                
   Atomic configuration                                                         
    6 entries                                                                   
     n  l   j            E        occ.                                          
     1  0  0.50     -2751.1850   2.0000                                         
     2  0  0.50      -252.6861   2.0000                                         
     2  1  1.50      -191.6157   6.0000                                         
     3  0  0.50       -20.6916   2.0000                                         
     3  1  0.50        -8.5949   5.0000                                         
     3  2  1.50        -8.1635   0.0000                                         
   Description                                                                  
     l       E           TYP  RCUT    TYP  RCUT                                 
     0    -20.6915656     23  1.900                                             
     0    -22.0521482     23  1.900                                             
     1     -8.5948577     23  1.900                                             
     1     -5.3847331     23  1.900                                             
     2     -8.1634956     23  1.900                                             
  local pseudopotential read in
  partial core-charges read in
  partial kinetic energy density read in
  atomic valenz-charges read in
  non local Contribution for L=           0  read in
    real space projection operators read in
  non local Contribution for L=           0  read in
    real space projection operators read in
  non local Contribution for L=           1  read in
    real space projection operators read in
  non local Contribution for L=           1  read in
    real space projection operators read in
    PAW grid and wavefunctions read in
 
   number of l-projection  operators is LMAX  =           4
   number of lm-projection operators is LMMAX =           8
 
 POTCAR:    PAW_PBE Ag 02Apr2005                  
   VRHFIN =Ag : s1 d10                                                          
   LEXCH  = PE                                                                  
   EATOM  =  1037.2675 eV,   76.2370 Ry                                         
                                                                                
   TITEL  = PAW_PBE Ag 02Apr2005                                                
   LULTRA =        F    use ultrasoft PP ?                                      
   IUNSCR =        1    unscreen: 0-lin 1-nonlin 2-no                           
   RPACOR =    2.000    partial core radius                                     
   POMASS =  107.868; ZVAL   =   11.000    mass and valenz                      
   RCORE  =    2.500    outmost cutoff radius                                   
   RWIGS  =    2.840; RWIGS  =    1.503    wigner-seitz radius (au A)           
   ENMAX  =  249.844; ENMIN  =  187.383 eV                                      
   ICORE  =        3    local potential                                         
   LCOR   =        T    correct aug charges                                     
   LPAW   =        T    paw PP                                                  
   EAUG   =  412.496                                                            
   DEXC   =    0.000                                                            
   RMAX   =    2.560    core radius for proj-oper                               
   RAUG   =    1.300    factor for augmentation sphere                          
   RDEP   =    2.576    radius for radial grids                                 
   RDEPT  =    2.072    core radius for aug-charge                              
                                                                                
   Atomic configuration                                                         
   12 entries                                                                   
     n  l   j            E        occ.                                          
     1  0  0.50    -25324.9161   2.0000                                         
     2  0  0.50     -3728.5341   2.0000                                         
     2  1  1.50     -3344.0404   6.0000                                         
     3  0  0.50      -683.5581   2.0000                                         
     3  1  1.50      -557.3225   6.0000                                         
     3  2  2.50      -358.3853  10.0000                                         
     4  0  0.50       -95.0341   2.0000                                         
     4  1  1.50       -58.5511   6.0000                                         
     4  2  2.50        -7.4440  10.0000                                         
     5  0  0.50        -4.4045   1.0000                                         
     5  1  0.50        -1.3606   0.0000                                         
     4  3  2.50        -1.3606   0.0000                                         
   Description                                                                  
     l       E           TYP  RCUT    TYP  RCUT                                 
     2     -7.4439781     23  2.400                                             
     2     -8.8045607     23  2.400                                             
     0     -4.4044681     23  2.400                                             
     0      1.9520038     23  2.400                                             
     1     -1.3605826     23  2.500                                             
     1     27.2116520     23  2.500                                             
     3     -4.0817478     23  2.400                                             
  local pseudopotential read in
  partial core-charges read in
  partial kinetic energy density read in
  atomic valenz-charges read in
  non local Contribution for L=           2  read in
    real space projection operators read in
  non local Contribution for L=           2  read in
    real space projection operators read in
  non local Contribution for L=           0  read in
    real space projection operators read in
  non local Contribution for L=           0  read in
    real space projection operators read in
  non local Contribution for L=           1  read in
    real space projection operators read in
  non local Contribution for L=           1  read in
    real space projection operators read in
    PAW grid and wavefunctions read in
 
   number of l-projection  operators is LMAX  =           6
   number of lm-projection operators is LMMAX =          18
 
 POTCAR:    PAW_PBE Cu 22Jun2005                  
   VRHFIN =Cu: d10 p1                                                           
   LEXCH  = PE                                                                  
   EATOM  =  1390.9808 eV,  102.2342 Ry                                         
                                                                                
   TITEL  = PAW_PBE Cu 22Jun2005                                                
   LULTRA =        F    use ultrasoft PP ?                                      
   IUNSCR =        1    unscreen: 0-lin 1-nonlin 2-no                           
   RPACOR =    2.000    partial core radius                                     
   POMASS =   63.546; ZVAL   =   11.000    mass and valenz                      
   RCORE  =    2.300    outmost cutoff radius                                   
   RWIGS  =    2.200; RWIGS  =    1.164    wigner-seitz radius (au A)           
   ENMAX  =  295.446; ENMIN  =  221.585 eV                                      
   ICORE  =        3    local potential                                         
   LCOR   =        T    correct aug charges                                     
   LPAW   =        T    paw PP                                                  
   EAUG   =  586.980                                                            
   DEXC   =    0.000                                                            
   RMAX   =    2.344    core radius for proj-oper                               
   RAUG   =    1.300    factor for augmentation sphere                          
   RDEP   =    2.302    radius for radial grids                                 
   RDEPT  =    1.771    core radius for aug-charge                              
                                                                                
   Atomic configuration                                                         
    9 entries                                                                   
     n  l   j            E        occ.                                          
     1  0  0.50     -8850.2468   2.0000                                         
     2  0  0.50     -1062.3498   2.0000                                         
     2  1  1.50      -916.8226   6.0000                                         
     3  0  0.50      -114.6929   2.0000                                         
     3  1  1.50       -72.1325   6.0000                                         
     3  2  2.50        -5.0394  10.0000                                         
     4  0  0.50        -4.6097   1.0000                                         
     4  1  0.50        -4.0817   0.0000                                         
     4  3  2.50        -1.3606   0.0000                                         
   Description                                                                  
     l       E           TYP  RCUT    TYP  RCUT                                 
     2     -5.0393973     23  2.200                                             
     2     10.8846608     23  2.200                                             
     0     -4.6097109     23  2.200                                             
     0      8.2520465     23  2.200                                             
     1     -2.7211652     23  2.200                                             
     1     21.7055443     23  2.200                                             
     3      2.7211652     23  2.300                                             
  local pseudopotential read in
  partial core-charges read in
  partial kinetic energy density read in
  atomic valenz-charges read in
  non local Contribution for L=           2  read in
    real space projection operators read in
  non local Contribution for L=           2  read in
    real space projection operators read in
  non local Contribution for L=           0  read in
    real space projection operators read in
  non local Contribution for L=           0  read in
    real space projection operators read in
  non local Contribution for L=           1  read in
    real space projection operators read in
  non local Contribution for L=           1  read in
    real space projection operators read in
    PAW grid and wavefunctions read in
 
   number of l-projection  operators is LMAX  =           6
   number of lm-projection operators is LMMAX =          18
 
 POTCAR:    PAW_PBE Cs_sv 08Apr2002               
   VRHFIN =Cs: 5s5p6s                                                           
   LEXCH  = PE                                                                  
   EATOM  =   555.6835 eV,   40.8416 Ry                                         
                                                                                
   TITEL  = PAW_PBE Cs_sv 08Apr2002                                             
   LULTRA =        F    use ultrasoft PP ?                                      
   IUNSCR =        1    unscreen: 0-lin 1-nonlin 2-no                           
   RPACOR =    2.200    partial core radius                                     
   POMASS =  132.900; ZVAL   =    9.000    mass and valenz                      
   RCORE  =    2.500    outmost cutoff radius                                   
   RWIGS  =    2.500; RWIGS  =    1.323    wigner-seitz radius (au A)           
   ENMAX  =  220.318; ENMIN  =  165.238 eV                                      
   RCLOC  =    2.207    cutoff for local pot                                    
   LCOR   =        T    correct aug charges                                     
   LPAW   =        T    paw PP                                                  
   EAUG   =  407.933                                                            
   DEXC   =    0.000                                                            
   RMAX   =    2.554    core radius for proj-oper                               
   RAUG   =    1.300    factor for augmentation sphere                          
   RDEP   =    2.590    radius for radial grids                                 
   RDEPT  =    2.117    core radius for aug-charge                              
                                                                                
   Atomic configuration                                                         
   13 entries                                                                   
     n  l   j            E        occ.                                          
     1  0  0.50    -35790.1377   2.0000                                         
     2  0  0.50     -5613.6201   2.0000                                         
     2  1  1.50     -5035.0101   6.0000                                         
     3  0  0.50     -1167.0767   2.0000                                         
     3  1  1.50      -980.9754   6.0000                                         
     3  2  2.50      -708.0703  10.0000                                         
     4  0  0.50      -220.2386   2.0000                                         
     4  1  1.50      -160.7596   6.0000                                         
     4  2  2.50       -74.2354  10.0000                                         
     5  0  0.50       -26.7287   2.0000                                         
     6  0  0.50        -2.0862   1.0000                                         
     5  1  1.50       -13.5159   6.0000                                         
     5  2  2.50        -0.4136   0.0000                                         
   Description                                                                  
     l       E           TYP  RCUT    TYP  RCUT                                 
     0    -26.7287425     23  1.900                                             
     0     -2.0862306     23  1.900                                             
     1    -13.5158719     23  2.500                                             
     1     -2.7211652     23  2.500                                             
     2     -0.4136171     23  2.500                                             
  local pseudopotential read in
  partial core-charges read in
  partial kinetic energy density read in
  atomic valenz-charges read in
  non local Contribution for L=           0  read in
    real space projection operators read in
  non local Contribution for L=           0  read in
    real space projection operators read in
  non local Contribution for L=           1  read in
    real space projection operators read in
  non local Contribution for L=           1  read in
    real space projection operators read in
  non local Contribution for L=           2  read in
    real space projection operators read in
    PAW grid and wavefunctions read in
 
   number of l-projection  operators is LMAX  =           5
   number of lm-projection operators is LMMAX =          13
 

 ----------------------------------------------------------------------------- 
|                                                                             |
|  ADVICE TO THIS USER RUNNING 'VASP/VAMP'   (HEAR YOUR MASTER'S VOICE ...):  |
|                                                                             |
|      You have a (more or less) 'large supercell' and for larger cells       |
|      it might be more efficient to use real space projection opertators     |
|      So try LREAL= Auto  in the INCAR   file.                               |
|      Mind:          For very  accurate calculation you might also keep the  |
|      reciprocal projection scheme          (i.e. LREAL=.FALSE.)             |
|                                                                             |
 ----------------------------------------------------------------------------- 

  PAW_PBE Cl 06Sep2000                  :
 energy of atom  1       EATOM= -409.7259
 kinetic energy error for atom=    0.0023 (will be added to EATOM!!)
  PAW_PBE Ag 02Apr2005                  :
 energy of atom  2       EATOM=-1037.2675
 kinetic energy error for atom=    0.0047 (will be added to EATOM!!)
  PAW_PBE Cu 22Jun2005                  :
 energy of atom  3       EATOM=-1390.9808
 kinetic energy error for atom=    0.0037 (will be added to EATOM!!)
  PAW_PBE Cs_sv 08Apr2002               :
 energy of atom  4       EATOM= -555.6835
 kinetic energy error for atom=    0.0016 (will be added to EATOM!!)
 
 
 POSCAR: Cs4 Cu2 Ag2 Cl12                        
  positions in direct lattice
  velocities in cartesian coordinates
 exchange correlation table for  LEXCH =        8
   RHO(1)=    0.500       N(1)  =     2000
   RHO(2)=  100.500       N(2)  =     4000

 VTST: version 3.1, (03/28/14)

 CHAIN: initializing optimizer
 
 OPT: Using VASP Dynamics algorithm
 CHAIN: Read ICHAIN            0
 
 POSCAR: Cs4 Cu2 Ag2 Cl12                        
  positions in direct lattice
  velocities in cartesian coordinates
 


--------------------------------------------------------------------------------------------------------


 ion  position               nearest neighbor table
   1  0.703  0.707  0.999-  15 2.21
   2  0.705  0.707  0.499-  16 2.21
   3  0.256  0.744  0.999-  15 2.37  13 2.52
   4  0.259  0.746  0.500-  16 2.37  14 2.52
   5  0.741  0.260  0.999-  15 2.37  13 2.52
   6  0.743  0.261  0.500-  16 2.37  14 2.52
   7  0.296  0.299  0.500-  16 2.21
   8  0.295  0.298  1.000-  15 2.21
   9  0.216  0.219  0.216-  13 2.38
  10  0.217  0.220  0.717-  14 2.38
  11  0.784  0.786  0.283-  14 2.38
  12  0.783  0.786  0.783-  13 2.38
  13  0.999  0.002  0.999-   9 2.38  12 2.38   3 2.52   5 2.52
  14  0.001  0.003  0.500-  11 2.38  10 2.38   6 2.52   4 2.52
  15  0.499  0.502  0.999-   1 2.21   8 2.21   3 2.37   5 2.37
  16  0.501  0.503  0.500-   2 2.21   7 2.21   6 2.37   4 2.37
  17  0.250  0.753  0.250-
  18  0.251  0.753  0.750-
  19  0.750  0.253  0.249-
  20  0.750  0.253  0.750-
 

IMPORTANT INFORMATION: All symmetrisations will be switched off!
NOSYMM: (Re-)initialisation of all symmetry stuff for point group C_1.

 
 
 KPOINTS: Auto                                    

Automatic generation of k-mesh.
Space group operators:
 irot       det(A)        alpha          n_x          n_y          n_z        tau_x        tau_y        tau_z
    1     1.000000     0.000000     1.000000     0.000000     0.000000     0.000000     0.000000     0.000000
 
 Subroutine IBZKPT returns following result:
 ===========================================
 
 Found     18 irreducible k-points:
 
 Following reciprocal coordinates:
            Coordinates               Weight
  0.000000  0.000000  0.000000      1.000000
  0.333333 -0.000000  0.000000      1.000000
 -0.333333  0.000000 -0.000000      1.000000
 -0.000000  0.333333 -0.000000      1.000000
  0.333333  0.333333  0.000000      1.000000
 -0.333333  0.333333 -0.000000      1.000000
  0.000000 -0.333333  0.000000      1.000000
  0.333333 -0.333333  0.000000      1.000000
 -0.333333 -0.333333 -0.000000      1.000000
 -0.000000  0.000000  0.500000      1.000000
  0.333333  0.000000  0.500000      1.000000
 -0.333333  0.000000  0.500000      1.000000
 -0.000000  0.333333  0.500000      1.000000
  0.333333  0.333333  0.500000      1.000000
 -0.333333  0.333333  0.500000      1.000000
  0.000000 -0.333333  0.500000      1.000000
  0.333333 -0.333333  0.500000      1.000000
 -0.333333 -0.333333  0.500000      1.000000
 
 Following cartesian coordinates:
            Coordinates               Weight
  0.000000  0.000000  0.000000      1.000000
  0.045927 -0.002249  0.030323      1.000000
 -0.045927  0.002249 -0.030323      1.000000
 -0.002252  0.045930  0.030322      1.000000
  0.043675  0.043681  0.060645      1.000000
 -0.048178  0.048179 -0.000000      1.000000
  0.002252 -0.045930 -0.030322      1.000000
  0.048178 -0.048179  0.000000      1.000000
 -0.043675 -0.043681 -0.060645      1.000000
 -0.000003  0.000001  0.045490      1.000000
  0.045923 -0.002248  0.075812      1.000000
 -0.045930  0.002250  0.015167      1.000000
 -0.002255  0.045931  0.075812      1.000000
  0.043672  0.043682  0.106135      1.000000
 -0.048181  0.048180  0.045490      1.000000
  0.002248 -0.045929  0.015168      1.000000
  0.048175 -0.048178  0.045490      1.000000
 -0.043678 -0.043680 -0.015155      1.000000
 
 
 Subroutine IBZKPT_HF returns following result:
 ==============================================
 
 Found     18 k-points in 1st BZ
 the following     18 k-points will be used (e.g. in the exchange kernel)
 Following reciprocal coordinates:   # in IRBZ
  0.000000  0.000000  0.000000    0.05555556   1 t-inv F
  0.333333 -0.000000  0.000000    0.05555556   2 t-inv F
 -0.333333  0.000000 -0.000000    0.05555556   3 t-inv F
 -0.000000  0.333333 -0.000000    0.05555556   4 t-inv F
  0.333333  0.333333  0.000000    0.05555556   5 t-inv F
 -0.333333  0.333333 -0.000000    0.05555556   6 t-inv F
  0.000000 -0.333333  0.000000    0.05555556   7 t-inv F
  0.333333 -0.333333  0.000000    0.05555556   8 t-inv F
 -0.333333 -0.333333 -0.000000    0.05555556   9 t-inv F
 -0.000000  0.000000  0.500000    0.05555556  10 t-inv F
  0.333333  0.000000  0.500000    0.05555556  11 t-inv F
 -0.333333  0.000000  0.500000    0.05555556  12 t-inv F
 -0.000000  0.333333  0.500000    0.05555556  13 t-inv F
  0.333333  0.333333  0.500000    0.05555556  14 t-inv F
 -0.333333  0.333333  0.500000    0.05555556  15 t-inv F
  0.000000 -0.333333  0.500000    0.05555556  16 t-inv F
  0.333333 -0.333333  0.500000    0.05555556  17 t-inv F
 -0.333333 -0.333333  0.500000    0.05555556  18 t-inv F


--------------------------------------------------------------------------------------------------------




 Dimension of arrays:
   k-points           NKPTS =     18   k-points in BZ     NKDIM =     18   number of bands    NBANDS=    384
   number of dos      NEDOS =   5000   number of ions     NIONS =     20
   non local maximal  LDIM  =      6   non local SUM 2l+1 LMDIM =     18
   total plane-waves  NPLWV = 349920
   max r-space proj   IRMAX =      1   max aug-charges    IRDMAX= 241336
   dimension x,y,z NGX =    54 NGY =   54 NGZ =  120
   dimension x,y,z NGXF=   108 NGYF=  108 NGZF=  240
   support grid    NGXF=   216 NGYF=  216 NGZF=  480
   ions per type =              12   2   2   4
   NGX,Y,Z   is equivalent  to a cutoff of  12.32, 12.33, 12.95 a.u.
   NGXF,Y,Z  is equivalent  to a cutoff of  24.65, 24.65, 25.90 a.u.

 SYSTEM =  unknown system                          
 POSCAR =  Cs4 Cu2 Ag2 Cl12                        

 Startparameter for this run:
   NWRITE =      2    write-flag & timer
   PREC   = accura    normal or accurate (medium, high low for compatibility)
   ISTART =      1    job   : 0-new  1-cont  2-samecut
   ICHARG =      0    charge: 1-file 2-atom 10-const
   ISPIN  =      2    spin polarized calculation?
   LNONCOLLINEAR =      F non collinear calculations
   LSORBIT =      F    spin-orbit coupling
   INIWAV =      1    electr: 0-lowe 1-rand  2-diag
   LASPH  =      T    aspherical Exc in radial PAW
   METAGGA=      F    non-selfconsistent MetaGGA calc.

 Electronic Relaxation 1
   ENCUT  =  520.0 eV  38.22 Ry    6.18 a.u.  13.54 13.54 28.64*2*pi/ulx,y,z
   ENINI  =  520.0     initial cutoff
   ENAUG  =  587.0 eV  augmentation charge cutoff
   NELM   =   5000;   NELMIN=  2; NELMDL=  0     # of ELM steps 
   EDIFF  = 0.1E-05   stopping-criterion for ELM
   LREAL  =      F    real-space projection
   NLSPLINE    = F    spline interpolate recip. space projectors
   LCOMPAT=      F    compatible to vasp.4.4
   GGA_COMPAT  = T    GGA compatible to vasp.4.4-vasp.4.6
   LMAXPAW     = -100 max onsite density
   LMAXMIX     =    2 max onsite mixed and CHGCAR
   VOSKOWN=      0    Vosko Wilk Nusair interpolation
   ROPT   =    0.00000   0.00000   0.00000   0.00000
 Ionic relaxation
   EDIFFG = 0.1E-04   stopping-criterion for IOM
   NSW    =      0    number of steps for IOM
   NBLOCK =      1;   KBLOCK =      1    inner block; outer block 
   IBRION =     -1    ionic relax: 0-MD 1-quasi-New 2-CG
   NFREE  =      0    steps in history (QN), initial steepest desc. (CG)
   ISIF   =      2    stress and relaxation
   IWAVPR =     10    prediction:  0-non 1-charg 2-wave 3-comb
   ISYM   =     -1    0-nonsym 1-usesym 2-fastsym
   LCORR  =      T    Harris-Foulkes like correction to forces

   POTIM  = 0.5000    time-step for ionic-motion
   TEIN   =    0.0    initial temperature
   TEBEG  =    0.0;   TEEND  =   0.0 temperature during run
   SMASS  =  -3.00    Nose mass-parameter (am)
   estimated Nose-frequenzy (Omega)   =  0.10E-29 period in steps =****** mass=  -0.121E-26a.u.
   SCALEE = 1.0000    scale energy and forces
   NPACO  =    256;   APACO  = 16.0  distance and # of slots for P.C.
   PSTRESS=    0.0 pullay stress

  Mass of Ions in am
   POMASS =  35.45107.87 63.55132.90
  Ionic Valenz
   ZVAL   =   7.00 11.00 11.00  9.00
  Atomic Wigner-Seitz radii
   RWIGS  =  -1.00 -1.00 -1.00 -1.00
  virtual crystal weights 
   VCA    =   1.00  1.00  1.00  1.00
   NELECT =     164.0000    total number of electrons
   NUPDOWN=      -1.0000    fix difference up-down

 DOS related values:
   EMIN   =  10.00;   EMAX   =-10.00  energy-range for DOS
   EFERMI =   0.00
   ISMEAR =     0;   SIGMA  =   0.01  broadening in eV -4-tet -1-fermi 0-gaus

 Electronic relaxation 2 (details)
   IALGO  =     53    algorithm
   LDIAG  =      T    sub-space diagonalisation (order eigenvalues)
   LSUBROT=      F    optimize rotation matrix (better conditioning)
   TURBO    =      0    0=normal 1=particle mesh
   IRESTART =      0    0=no restart 2=restart with 2 vectors
   NREBOOT  =      0    no. of reboots
   NMIN     =      0    reboot dimension
   EREF     =   0.00    reference energy to select bands
   IMIX   =      4    mixing-type and parameters
     AMIX     =   0.40;   BMIX     =  1.00
     AMIX_MAG =   1.60;   BMIX_MAG =  1.00
     AMIN     =   0.10
     WC   =   100.;   INIMIX=   1;  MIXPRE=   1;  MAXMIX= -45

 Intra band minimization:
   WEIMIN = 0.0000     energy-eigenvalue tresh-hold
   EBREAK =  0.65E-09  absolut break condition
   DEPER  =   0.30     relativ break condition  

   TIME   =   0.40     timestep for ELM

  volume/ion in A,a.u.               =      29.02       195.82
  Fermi-wavevector in a.u.,A,eV,Ry     =   1.074308  2.030148 15.703001  1.154138
  Thomas-Fermi vector in A             =   2.210133
 
 Write flags
   LWAVE        =      T    write WAVECAR
   LDOWNSAMPLE  =      F    k-point downsampling of WAVECAR
   LCHARG       =      T    write CHGCAR
   LVTOT        =      F    write LOCPOT, total local potential
   LVHAR        =      F    write LOCPOT, Hartree potential only
   LELF         =      F    write electronic localiz. function (ELF)
   LORBIT       =     11    0 simple, 1 ext, 2 COOP (PROOUT), +10 PAW based schemes


 Dipole corrections
   LMONO  =      F    monopole corrections only (constant potential shift)
   LDIPOL =      F    correct potential (dipole corrections)
   IDIPOL =      0    1-x, 2-y, 3-z, 4-all directions 
   EPSILON=  1.0000000 bulk dielectric constant

 Exchange correlation treatment:
   GGA     =    PE    GGA type
   LEXCH   =     8    internal setting for exchange type
   VOSKOWN=      0    Vosko Wilk Nusair interpolation
   EXXOEP  =     0    0=HF, 1=EXX-LHF (local Hartree Fock) 2=EXX OEP
   LHFCALC =     T    Hartree Fock is set to
   LSYMGRAD=     F    symmetrize gradient (conserves proper symmetry)
   PRECFOCK=normal    Normal, Fast or Accurate (Low or Medium for compatibility)
   LRHFCALC=     F    long range Hartree Fock
   LRSCOR  =     F    long range correlation only (use DFT for short range part)
   LTHOMAS =     F    Thomas Fermi screening in HF
   LMODELHF=     F    short range full HF, long range fraction AEXX
   ENCUT4O =  -1.0   cutoff for four orbital integrals eV
   LMAXFOCK=     4    L truncation for augmentation on plane wave grid
   LMAXFOCKAE=  -1    L truncation for all-electron charge restoration on plane wave grid
   NMAXFOCKAE=   1    number of basis functions for all-electron charge restoration
   LFOCKAEDFT=     F  apply the AE augmentation even for DFT
   NKREDX  =     1    reduce k-point grid by
   NKREDY  =     1    reduce k-point grid by
   NKREDZ  =     1    reduce k-point grid by
   SHIFTRED=     F    shift reduced grid of Gamma
   HFKIDENT=     F    idential grid for each k-point
   ODDONLY =     F    use only odd q-grid points
   EVENONLY=     F    use only even q-grid points
   HFALPHA =   -1.0000 decay constant for conv. correction
   MCALPHA =    0.0000 extent of test-charge in conv. correction in multipole expansion
   AEXX    =    0.2330 exact exchange contribution
   HFSCREEN=    0.2000 screening length (either q_TF or 0.3 A-1)
   HFSCREENC=   0.2000 screening length for correlation (either q_TF or 0.3 A-1)
   HFRCUT  =    0.0000 spherical cutoff for potential kernel
   ALDAX   =    0.7670 LDA exchange part
   AGGAX   =    0.7670 GGA exchange part
   ALDAC   =    1.0000 LDA correlation
   AGGAC   =    1.0000 GGA correlation
   ENCUTFOCK=  -1.0 apply spherical cutoff to Coloumb kernel
   NBANDSGWLOW=     1    first orbital included in HF term
   NBLOCK_FOCK=    64    blocking factor in FOCK_ACC
 Linear response parameters
   LEPSILON=     F    determine dielectric tensor
   LRPA    =     F    only Hartree local field effects (RPA)
   LNABLA  =     F    use nabla operator in PAW spheres
   LVEL    =     F    velocity operator in full k-point grid
   LINTERFAST=   F  fast interpolation
   KINTER  =     0    interpolate to denser k-point grid
   CSHIFT  =0.1000    complex shift for real part using Kramers Kronig
   OMEGAMAX=  -1.0    maximum frequency
   DEG_THRESHOLD= 0.2000000E-02 threshold for treating states as degnerate
   RTIME   =   -0.100 relaxation time in fs
  (WPLASMAI=    0.000 imaginary part of plasma frequency in eV, 0.658/RTIME)
   DFIELD  = 0.0000000 0.0000000 0.0000000 field for delta impulse in time
 
 Orbital magnetization related:
   ORBITALMAG=     F  switch on orbital magnetization
   LCHIMAG   =     F  perturbation theory with respect to B field
   DQ        =  0.001000  dq finite difference perturbation B field
   LLRAUG    =     F  two centre corrections for induced B field



--------------------------------------------------------------------------------------------------------


 Static calculation
 charge density and potential will be updated during run
 spin polarized calculation
 Conjugate gradient for all bands (Freysoldt, et al. PRB 79, 241103 (2009))
 perform sub-space diagonalisation
    before iterative eigenvector-optimisation
 modified Broyden-mixing scheme, WC =      100.0
 initial mixing is a Kerker type mixing with AMIX =  0.4000 and BMIX =      1.0000
 Hartree-type preconditioning will be used
 using additional bands          302
 reciprocal scheme for non local part
 use partial core corrections
 no Harris-corrections to forces 
 use gradient corrections 
 use of overlap-Matrix (Vanderbilt PP)
 Gauss-broadening in eV      SIGMA  =   0.01


--------------------------------------------------------------------------------------------------------


  energy-cutoff  :      520.00
  volume of cell :      580.34
      direct lattice vectors                 reciprocal lattice vectors
     7.275084841  0.356311589  0.000495524     0.137779700 -0.006747134  0.090967538
     0.356325029  7.274981651 -0.000099809    -0.006754707  0.137789482  0.090966293
    -7.630372774 -7.630161445 10.991049872    -0.000006273  0.000001555  0.090979844

  length of vectors
     7.283805162  7.283702737 15.402763701     0.165238804  0.165246585  0.090979844


 
 old parameters found on file WAVECAR:
  energy-cutoff  :      520.00
  volume of cell :      579.06
      direct lattice vectors                 reciprocal lattice vectors
     7.271900103  0.351576350  0.000652030     0.137829747 -0.006665822  0.091092335
     0.351608163  7.271810348  0.000115574    -0.006672280  0.137838510  0.091089870
    -7.622250373 -7.621941589 10.975306866    -0.000008118 -0.000001055  0.091107255

  length of vectors

 
 k-points in units of 2pi/SCALE and weight: Auto                                    
   0.00000000  0.00000000  0.00000000       0.056
   0.04592657 -0.00224904  0.03032251       0.056
  -0.04592657  0.00224904 -0.03032251       0.056
  -0.00225157  0.04592983  0.03032210       0.056
   0.04367500  0.04368078  0.06064461       0.056
  -0.04817814  0.04817887 -0.00000042       0.056
   0.00225157 -0.04592983 -0.03032210       0.056
   0.04817814 -0.04817887  0.00000042       0.056
  -0.04367500 -0.04368078 -0.06064461       0.056
  -0.00000314  0.00000078  0.04548992       0.056
   0.04592343 -0.00224827  0.07581243       0.056
  -0.04592970  0.00224982  0.01516741       0.056
  -0.00225471  0.04593060  0.07581202       0.056
   0.04367186  0.04368156  0.10613453       0.056
  -0.04818127  0.04817965  0.04548951       0.056
   0.00224843 -0.04592905  0.01516782       0.056
   0.04817500 -0.04817809  0.04549034       0.056
  -0.04367813 -0.04368000 -0.01515469       0.056
 
 k-points in reciprocal lattice and weights: Auto                                    
   0.00000000  0.00000000  0.00000000       0.056
   0.33333333 -0.00000000  0.00000000       0.056
  -0.33333333  0.00000000 -0.00000000       0.056
  -0.00000000  0.33333333 -0.00000000       0.056
   0.33333333  0.33333333  0.00000000       0.056
  -0.33333333  0.33333333 -0.00000000       0.056
   0.00000000 -0.33333333  0.00000000       0.056
   0.33333333 -0.33333333  0.00000000       0.056
  -0.33333333 -0.33333333 -0.00000000       0.056
  -0.00000000  0.00000000  0.50000000       0.056
   0.33333333  0.00000000  0.50000000       0.056
  -0.33333333  0.00000000  0.50000000       0.056
  -0.00000000  0.33333333  0.50000000       0.056
   0.33333333  0.33333333  0.50000000       0.056
  -0.33333333  0.33333333  0.50000000       0.056
   0.00000000 -0.33333333  0.50000000       0.056
   0.33333333 -0.33333333  0.50000000       0.056
  -0.33333333 -0.33333333  0.50000000       0.056
 
 position of ions in fractional coordinates (direct lattice) 
   0.70327712  0.70651925  0.99938337
   0.70469474  0.70718697  0.49945084
   0.25625609  0.74397419  0.99926401
   0.25880598  0.74610257  0.50019844
   0.74132740  0.25950365  0.99920530
   0.74325065  0.26100431  0.49988902
   0.29628098  0.29880174  0.49972221
   0.29507971  0.29774658  0.99957148
   0.21580700  0.21878081  0.21577242
   0.21709208  0.21993074  0.71659700
   0.78412518  0.78640859  0.28346158
   0.78330684  0.78608237  0.78264443
   0.99935109  0.00229176  0.99922048
   0.00063072  0.00315974  0.50001425
   0.49875336  0.50171227  0.99905126
   0.50094248  0.50345691  0.50004347
   0.25022217  0.75303784  0.24960990
   0.25064615  0.75303000  0.74950258
   0.75015992  0.25255345  0.24943076
   0.75041134  0.25318729  0.74960419
 
 position of ions in cartesian coordinates  (Angst):
  -2.25751649 -2.23495612 10.98455043
   1.56770636  1.58497256  5.48976769
  -5.49537544 -2.12084011 10.98301325
  -1.66801013  1.70350318  5.49775981
  -2.13862156 -5.47206996 10.98265676
   1.68587437 -1.65060355  5.49464740
  -1.55112695 -1.53361564  5.49258874
  -5.37427847 -5.35565053 10.98645644
   0.00154725  0.02214245  2.37165058
  -3.81017210 -3.79040626  7.87623897
   3.82187674  3.83764331  3.11585047
   0.00685578  0.02613274  8.60239369
  -0.35324417 -7.25146071 10.98297708
  -3.80958074 -3.79197768  5.49568160
  -3.81588788 -3.79526327 10.98081928
   0.00827523  0.02571897  5.49620069
   0.18409714  3.66292968  2.74352373
  -3.62718861 -0.15123810  8.23786925
   3.64421852  0.20141542  2.74185243
  -0.17023626 -3.61028785  8.23928362
 


--------------------------------------------------------------------------------------------------------


 k-point  1 :   0.0000 0.0000 0.0000  plane waves:   15661
 k-point  2 :   0.3333-0.0000 0.0000  plane waves:   15636
 k-point  3 :  -0.3333 0.0000-0.0000  plane waves:   15636
 k-point  4 :  -0.0000 0.3333-0.0000  plane waves:   15635
 k-point  5 :   0.3333 0.3333 0.0000  plane waves:   15620
 k-point  6 :  -0.3333 0.3333-0.0000  plane waves:   15612
 k-point  7 :   0.0000-0.3333 0.0000  plane waves:   15635
 k-point  8 :   0.3333-0.3333 0.0000  plane waves:   15612
 k-point  9 :  -0.3333-0.3333-0.0000  plane waves:   15620
 k-point 10 :  -0.0000 0.0000 0.5000  plane waves:   15586
 k-point 11 :   0.3333 0.0000 0.5000  plane waves:   15647
 k-point 12 :  -0.3333 0.0000 0.5000  plane waves:   15647
 k-point 13 :  -0.0000 0.3333 0.5000  plane waves:   15646
 k-point 14 :   0.3333 0.3333 0.5000  plane waves:   15633
 k-point 15 :  -0.3333 0.3333 0.5000  plane waves:   15603
 k-point 16 :   0.0000-0.3333 0.5000  plane waves:   15646
 k-point 17 :   0.3333-0.3333 0.5000  plane waves:   15603
 k-point 18 :  -0.3333-0.3333 0.5000  plane waves:   15633

 maximum and minimum number of plane-waves per node :     15661    15586

 maximum number of plane-waves:     15661
 maximum index in each direction: 
   IXMAX=   13   IYMAX=   13   IZMAX=   28
   IXMIN=  -13   IYMIN=  -13   IZMIN=  -29


 serial   3D FFT for wavefunctions
 parallel 3D FFT for charge:
    minimum data exchange during FFTs selected (reduces bandwidth)


 FFT grid for exact exchange (Hartree Fock) 
  NGX = 42; NGY = 42; NGZ = 90

 
 Radii for the augmentation spheres in the non-local exchange
 for species   1 augmentation radius   1.176 (default was   0.941)
       energy cutoff for augmentation   2080.0
 for species   2 augmentation radius   1.406 (default was   1.125)
       energy cutoff for augmentation   2080.0
 for species   3 augmentation radius   1.179 (default was   0.943)
       energy cutoff for augmentation   2080.0
 for species   4 augmentation radius   1.414 (default was   1.131)
       energy cutoff for augmentation   2080.0
 Maximum index for augmentation-charges in exchange         3248
  SETUP_FOCK is finished

 total amount of memory used by VASP MPI-rank0   589079. kBytes
=======================================================================

   base      :      30000. kBytes
   nonl-proj :     167587. kBytes
   fftplans  :      14727. kBytes
   grid      :      38109. kBytes
   one-center:        622. kBytes
   HF        :        259. kBytes
   nonlr-proj:       7991. kBytes
   wavefun   :     329784. kBytes
 
     INWAV:  cpu time   20.2322: real time   20.5142
 Broyden mixing: mesh for mixing (old mesh)
   NGX = 27   NGY = 27   NGZ = 57
  (NGX  =108   NGY  =108   NGZ  =240)
  gives a total of  41553 points

 charge density for first step will be calculated from the start-wavefunctions


--------------------------------------------------------------------------------------------------------


 Maximum index for augmentation-charges         8636 (set IRDMAX)


--------------------------------------------------------------------------------------------------------


 initial charge from wavefunction
 First call to EWALD:  gamma=   0.212
 Maximum number of real-space cells 4x 4x 2
 Maximum number of reciprocal cells 2x 2x 5

    FEWALD:  cpu time    0.0104: real time    0.0213


--------------------------------------- Iteration      1(   1)  ---------------------------------------


    POTLOK:  cpu time    1.0185: real time    1.0264
    SETDIJ:  cpu time    2.2952: real time    2.2953
    TRIAL :  cpu time 1189.9626: real time 1190.6078
    CORREC:  cpu time    0.0311: real time    0.0311
    CHARGE:  cpu time    0.5219: real time    0.5219
    --------------------------------------------
      LOOP:  cpu time 1193.9783: real time 1194.6434

 eigenvalue-minimisations  :     0
 total energy-change (2. order) :-0.7160108E+02  (-0.3675048E-03)
 number of electron     164.0000000 magnetization       0.0000000
 augmentation part        5.5424209 magnetization       0.5281294

 Free energy of the ion-electron system (eV)
  ---------------------------------------------------
  alpha Z        PSCENC =       409.37197344
  Ewald energy   TEWEN  =     -8455.79836648
  -Hartree energ DENC   =     -3498.12956020
  -exchange      EXHF   =       330.71226865
  -V(xc)+E(xc)   XCENC  =       272.18597569
  PAW double counting   =     13258.03872395   -13362.32965171
  entropy T*S    EENTRO =        -0.00000000
  eigenvalues    EBANDS =      -997.74068860
  atomic energy  EATOM  =     11972.08824323
  ---------------------------------------------------
  free energy    TOTEN  =       -71.60108202 eV

  energy without entropy =      -71.60108202  energy(sigma->0) =      -71.60108202
  exchange ACFDT corr.  =        -0.00000000  see jH, gK, PRB 81, 115126


--------------------------------------------------------------------------------------------------------




--------------------------------------- Iteration      1(   2)  ---------------------------------------


    POTLOK:  cpu time    0.9479: real time    0.9479
    SETDIJ:  cpu time    2.3298: real time    2.3297
    TRIAL :  cpu time 1182.7971: real time 1183.6100
    CORREC:  cpu time    0.0060: real time    0.0060
    CHARGE:  cpu time    0.5215: real time    0.5215
    --------------------------------------------
      LOOP:  cpu time 1186.6195: real time 1187.4658

 eigenvalue-minimisations  :     0
 total energy-change (2. order) :-0.2877141E-03  (-0.2137929E-03)
 number of electron     164.0000000 magnetization       0.0000000
 augmentation part        5.5423982 magnetization       0.5281736

 Free energy of the ion-electron system (eV)
  ---------------------------------------------------
  alpha Z        PSCENC =       409.37197344
  Ewald energy   TEWEN  =     -8455.79836648
  -Hartree energ DENC   =     -3498.12897066
  -exchange      EXHF   =       330.71239381
  -V(xc)+E(xc)   XCENC  =       272.18603939
  PAW double counting   =     13257.92207660   -13362.21390792
  entropy T*S    EENTRO =        -0.00000000
  eigenvalues    EBANDS =      -997.74085115
  atomic energy  EATOM  =     11972.08824323
  ---------------------------------------------------
  free energy    TOTEN  =       -71.60136974 eV

  energy without entropy =      -71.60136974  energy(sigma->0) =      -71.60136974
  exchange ACFDT corr.  =        -0.00000000  see jH, gK, PRB 81, 115126


--------------------------------------------------------------------------------------------------------




--------------------------------------- Iteration      1(   3)  ---------------------------------------


    POTLOK:  cpu time    0.9480: real time    0.9483
    SETDIJ:  cpu time    2.3272: real time    2.3271
    TRIAL :  cpu time 1183.8165: real time 1184.4003
    CORREC:  cpu time    0.0061: real time    0.0061
    CHARGE:  cpu time    0.5233: real time    0.5233
    --------------------------------------------
      LOOP:  cpu time 1187.6221: real time 1188.2100

 eigenvalue-minimisations  :     0
 total energy-change (2. order) :-0.1442459E-03  (-0.4534207E-04)
 number of electron     164.0000000 magnetization       0.0000000
 augmentation part        5.5423809 magnetization       0.5282154

 Free energy of the ion-electron system (eV)
  ---------------------------------------------------
  alpha Z        PSCENC =       409.37197344
  Ewald energy   TEWEN  =     -8455.79836648
  -Hartree energ DENC   =     -3498.12501344
  -exchange      EXHF   =       330.71249013
  -V(xc)+E(xc)   XCENC  =       272.18600527
  PAW double counting   =     13257.82574952   -13362.11723786
  entropy T*S    EENTRO =        -0.00000000
  eigenvalues    EBANDS =      -997.74535779
  atomic energy  EATOM  =     11972.08824323
  ---------------------------------------------------
  free energy    TOTEN  =       -71.60151398 eV

  energy without entropy =      -71.60151398  energy(sigma->0) =      -71.60151398
  exchange ACFDT corr.  =        -0.00000000  see jH, gK, PRB 81, 115126


--------------------------------------------------------------------------------------------------------




--------------------------------------- Iteration      1(   4)  ---------------------------------------


    POTLOK:  cpu time    0.9479: real time    0.9479
    SETDIJ:  cpu time    2.3242: real time    2.3246
    TRIAL :  cpu time 1185.7414: real time 1186.6052
    CORREC:  cpu time    0.0062: real time    0.0063
    CHARGE:  cpu time    0.5212: real time    0.5213
    --------------------------------------------
      LOOP:  cpu time 1189.5425: real time 1190.4090

 eigenvalue-minimisations  :     0
 total energy-change (2. order) :-0.2082646E-04  ( 0.5268820E-06)
 number of electron     164.0000000 magnetization       0.0000000
 augmentation part        5.5423759 magnetization       0.5282518

 Free energy of the ion-electron system (eV)
  ---------------------------------------------------
  alpha Z        PSCENC =       409.37197344
  Ewald energy   TEWEN  =     -8455.79836648
  -Hartree energ DENC   =     -3498.12208401
  -exchange      EXHF   =       330.71259109
  -V(xc)+E(xc)   XCENC  =       272.18598975
  PAW double counting   =     13257.79943514   -13362.09074943
  entropy T*S    EENTRO =        -0.00000000
  eigenvalues    EBANDS =      -997.74856754
  atomic energy  EATOM  =     11972.08824323
  ---------------------------------------------------
  free energy    TOTEN  =       -71.60153481 eV

  energy without entropy =      -71.60153481  energy(sigma->0) =      -71.60153481
  exchange ACFDT corr.  =        -0.00000000  see jH, gK, PRB 81, 115126


--------------------------------------------------------------------------------------------------------




--------------------------------------- Iteration      1(   5)  ---------------------------------------


    POTLOK:  cpu time    0.9491: real time    0.9491
    SETDIJ:  cpu time    2.3242: real time    2.3242
    TRIAL :  cpu time 1185.8679: real time 1186.5321
    CORREC:  cpu time    0.0507: real time    0.0507
    CHARGE:  cpu time    0.5428: real time    0.5429
    --------------------------------------------
      LOOP:  cpu time 1189.7388: real time 1190.4049

 eigenvalue-minimisations  :     0
 total energy-change (2. order) : 0.3625710E-05  (-0.9980086E-06)
 number of electron     164.0000000 magnetization       0.0000000
 augmentation part        5.5423743 magnetization       0.5282837

 Free energy of the ion-electron system (eV)
  ---------------------------------------------------
  alpha Z        PSCENC =       409.37197344
  Ewald energy   TEWEN  =     -8455.79836648
  -Hartree energ DENC   =     -3498.12089819
  -exchange      EXHF   =       330.71269941
  -V(xc)+E(xc)   XCENC  =       272.18600922
  PAW double counting   =     13257.82642645   -13362.11797705
  entropy T*S    EENTRO =        -0.00000000
  eigenvalues    EBANDS =      -997.74964120
  atomic energy  EATOM  =     11972.08824323
  ---------------------------------------------------
  free energy    TOTEN  =       -71.60153118 eV

  energy without entropy =      -71.60153118  energy(sigma->0) =      -71.60153118
  exchange ACFDT corr.  =        -0.00000000  see jH, gK, PRB 81, 115126


--------------------------------------------------------------------------------------------------------




--------------------------------------- Iteration      1(   6)  ---------------------------------------


    POTLOK:  cpu time    0.9475: real time    0.9475
    SETDIJ:  cpu time    2.4538: real time    2.4537
    TRIAL :  cpu time 1184.0170: real time 1184.6738
    CORREC:  cpu time    0.0058: real time    0.0058
    CHARGE:  cpu time    0.5206: real time    0.5206
    --------------------------------------------
      LOOP:  cpu time 1187.9932: real time 1188.6600

 eigenvalue-minimisations  :     0
 total energy-change (2. order) :-0.7830076E-06  (-0.3038545E-05)
 number of electron     164.0000000 magnetization       0.0000000
 augmentation part        5.5423718 magnetization       0.5283124

 Free energy of the ion-electron system (eV)
  ---------------------------------------------------
  alpha Z        PSCENC =       409.37197344
  Ewald energy   TEWEN  =     -8455.79836648
  -Hartree energ DENC   =     -3498.12030114
  -exchange      EXHF   =       330.71280089
  -V(xc)+E(xc)   XCENC  =       272.18602630
  PAW double counting   =     13257.87080179   -13362.16262097
  entropy T*S    EENTRO =        -0.00000000
  eigenvalues    EBANDS =      -997.75008903
  atomic energy  EATOM  =     11972.08824323
  ---------------------------------------------------
  free energy    TOTEN  =       -71.60153197 eV

  energy without entropy =      -71.60153197  energy(sigma->0) =      -71.60153197
  exchange ACFDT corr.  =        -0.00000000  see jH, gK, PRB 81, 115126


--------------------------------------------------------------------------------------------------------




--------------------------------------- Iteration      1(   7)  ---------------------------------------


    POTLOK:  cpu time    0.9474: real time    0.9474
    SETDIJ:  cpu time    2.3271: real time    2.3271
    TRIAL :  cpu time 1185.7337: real time 1186.6922
    CORREC:  cpu time    0.0413: real time    0.0659
    CHARGE:  cpu time    0.6041: real time    0.6180
    --------------------------------------------
      LOOP:  cpu time 1189.6553: real time 1190.6540

 eigenvalue-minimisations  :     0
 total energy-change (2. order) :-0.2387977E-05  (-0.1703282E-05)
 number of electron     164.0000000 magnetization       0.0000000
 augmentation part        5.5423695 magnetization       0.5283377

 Free energy of the ion-electron system (eV)
  ---------------------------------------------------
  alpha Z        PSCENC =       409.37197344
  Ewald energy   TEWEN  =     -8455.79836648
  -Hartree energ DENC   =     -3498.11964827
  -exchange      EXHF   =       330.71288970
  -V(xc)+E(xc)   XCENC  =       272.18603420
  PAW double counting   =     13257.90812287   -13362.20009076
  entropy T*S    EENTRO =        -0.00000000
  eigenvalues    EBANDS =      -997.75069227
  atomic energy  EATOM  =     11972.08824323
  ---------------------------------------------------
  free energy    TOTEN  =       -71.60153436 eV

  energy without entropy =      -71.60153436  energy(sigma->0) =      -71.60153436
  exchange ACFDT corr.  =        -0.00000000  see jH, gK, PRB 81, 115126


--------------------------------------------------------------------------------------------------------




--------------------------------------- Iteration      1(   8)  ---------------------------------------


    POTLOK:  cpu time    1.0751: real time    1.0799
    SETDIJ:  cpu time    2.4595: real time    2.4595
    TRIAL :  cpu time 1185.1493: real time 1185.8736
    CORREC:  cpu time    0.0059: real time    0.0060
    CHARGE:  cpu time    0.5196: real time    0.5197
    --------------------------------------------
      LOOP:  cpu time 1189.2477: real time 1190.0183

 eigenvalue-minimisations  :     0
 total energy-change (2. order) :-0.1214008E-05  (-0.5180995E-06)
 number of electron     164.0000000 magnetization       0.0000000
 augmentation part        5.5423681 magnetization       0.5283596

 Free energy of the ion-electron system (eV)
  ---------------------------------------------------
  alpha Z        PSCENC =       409.37197344
  Ewald energy   TEWEN  =     -8455.79836648
  -Hartree energ DENC   =     -3498.11900701
  -exchange      EXHF   =       330.71296834
  -V(xc)+E(xc)   XCENC  =       272.18603837
  PAW double counting   =     13257.92926423   -13362.22135579
  entropy T*S    EENTRO =        -0.00000000
  eigenvalues    EBANDS =      -997.75129390
  atomic energy  EATOM  =     11972.08824323
  ---------------------------------------------------
  free energy    TOTEN  =       -71.60153557 eV

  energy without entropy =      -71.60153557  energy(sigma->0) =      -71.60153557
  exchange ACFDT corr.  =        -0.00000000  see jH, gK, PRB 81, 115126


--------------------------------------------------------------------------------------------------------




--------------------------------------- Iteration      1(   9)  ---------------------------------------


    POTLOK:  cpu time    0.9475: real time    0.9477
    SETDIJ:  cpu time    2.3312: real time    2.3315
    TRIAL :  cpu time 1187.2946: real time 1188.3508
    CORREC:  cpu time    0.0058: real time    0.0058
    EDDIAG:  cpu time 1183.1479: real time 1184.1853
    CHARGE:  cpu time    0.4993: real time    0.4999
    --------------------------------------------
      LOOP:  cpu time 2374.2313: real time 2376.3405

 eigenvalue-minimisations  :     0
 total energy-change (2. order) :-0.3411551E-06  (-0.1286133E-06)
 number of electron     164.0000000 magnetization       0.0000000
 augmentation part        5.5423667 magnetization       0.5283787

 Free energy of the ion-electron system (eV)
  ---------------------------------------------------
  alpha Z        PSCENC =       409.37197344
  Ewald energy   TEWEN  =     -8455.79836648
  -Hartree energ DENC   =     -3498.11843889
  -exchange      EXHF   =       330.71309709
  -V(xc)+E(xc)   XCENC  =       272.18604188
  PAW double counting   =     13257.93634809   -13362.22857555
  entropy T*S    EENTRO =        -0.00000000
  eigenvalues    EBANDS =      -997.75179937
  atomic energy  EATOM  =     11972.08824323
  ---------------------------------------------------
  free energy    TOTEN  =       -71.60153591 eV

  energy without entropy =      -71.60153591  energy(sigma->0) =      -71.60153591
  exchange ACFDT corr.  =        -0.00000000  see jH, gK, PRB 81, 115126


--------------------------------------------------------------------------------------------------------


  average scaling for gradient   1.1057


 average (electrostatic) potential at core
  the test charge radii are     0.9406  1.1249  0.9430  1.1312
  (the norm of the test charge is              1.0000)
       1 -89.8080       2 -89.8118       3 -90.1386       4 -90.1376       5 -90.1381
       6 -90.1381       7 -89.8093       8 -89.8141       9 -89.8177      10 -89.8209
      11 -89.8168      12 -89.8205      13 -71.8305      14 -71.8300      15 -63.6747
      16 -63.6743      17 -45.5664      18 -45.5612      19 -45.5683      20 -45.5621
 
 
 
 E-fermi :  -0.0926     XC(G=0):  -7.0222     alpha+bet : -8.0882


 spin component 1

 k-point     1 :       0.0000    0.0000    0.0000
  band No.  band energies     occupation 
      1     -20.8543      1.00000
      2     -20.8473      1.00000
      3     -20.8341      1.00000
      4     -20.8295      1.00000
      5     -15.5956      1.00000
      6     -15.5516      1.00000
      7     -15.1461      1.00000
      8     -15.1387      1.00000
      9     -14.9679      1.00000
     10     -14.9673      1.00000
     11     -14.9595      1.00000
     12     -14.8773      1.00000
     13     -14.7862      1.00000
     14     -14.7752      1.00000
     15     -14.7478      1.00000
     16     -14.7449      1.00000
     17      -7.0421      1.00000
     18      -6.9366      1.00000
     19      -6.9178      1.00000
     20      -6.9166      1.00000
     21      -6.8271      1.00000
     22      -6.8250      1.00000
     23      -6.8151      1.00000
     24      -6.7855      1.00000
     25      -6.7511      1.00000
     26      -6.7455      1.00000
     27      -6.7123      1.00000
     28      -6.6996      1.00000
     29      -5.8671      1.00000
     30      -5.8500      1.00000
     31      -5.4780      1.00000
     32      -5.4121      1.00000
     33      -4.8216      1.00000
     34      -4.8067      1.00000
     35      -4.7925      1.00000
     36      -4.7058      1.00000
     37      -4.6251      1.00000
     38      -4.6059      1.00000
     39      -4.2093      1.00000
     40      -4.1925      1.00000
     41      -4.1382      1.00000
     42      -4.0716      1.00000
     43      -3.9690      1.00000
     44      -3.9445      1.00000
     45      -3.8953      1.00000
     46      -3.8628      1.00000
     47      -3.6938      1.00000
     48      -3.6502      1.00000
     49      -3.5963      1.00000
     50      -3.5756      1.00000
     51      -3.3569      1.00000
     52      -3.3559      1.00000
     53      -3.3175      1.00000
     54      -3.0788      1.00000
     55      -2.9505      1.00000
     56      -2.6410      1.00000
     57      -2.3365      1.00000
     58      -2.2669      1.00000
     59      -2.0155      1.00000
     60      -1.7628      1.00000
     61      -1.7401      1.00000
     62      -1.7139      1.00000
     63      -1.6585      1.00000
     64      -1.6436      1.00000
     65      -1.6371      1.00000
     66      -1.6350      1.00000
     67      -1.6310      1.00000
     68      -1.6012      1.00000
     69      -1.5657      1.00000
     70      -1.4771      1.00000
     71      -1.4210      1.00000
     72      -1.2847      1.00000
     73      -1.2698      1.00000
     74      -1.2582      1.00000
     75      -1.2435      1.00000
     76      -1.1164      1.00000
     77      -1.0912      1.00000
     78      -1.0267      1.00000
     79      -0.9222      1.00000
     80      -0.7349      1.00000
     81      -0.7176      1.00000
     82      -0.5576      1.00000
     83       1.1615      0.00000
     84       1.4778      0.00000
     85       4.8007      0.00000
     86       6.4267      0.00000
     87       6.6788      0.00000
     88       6.7767      0.00000
     89       6.8186      0.00000
     90       6.8616      0.00000
     91       7.0886      0.00000
     92       7.2430      0.00000
     93       7.4051      0.00000
     94       7.7003      0.00000
     95       7.8274      0.00000
     96       8.1187      0.00000
     97       8.1911      0.00000
     98       8.3730      0.00000
     99       8.4316      0.00000
    100       8.4531      0.00000
    101       8.4639      0.00000
    102       8.6712      0.00000
    103       8.7817      0.00000
    104       8.7889      0.00000
    105       8.7937      0.00000
    106       9.1360      0.00000
    107       9.3668      0.00000
    108       9.3702      0.00000
    109       9.3785      0.00000
    110       9.4525      0.00000
    111       9.5050      0.00000
    112       9.5201      0.00000
    113       9.6881      0.00000
    114      10.0068      0.00000
    115      10.1200      0.00000
    116      10.2029      0.00000
    117      10.5949      0.00000
    118      10.6683      0.00000
    119      10.6780      0.00000
    120      10.8179      0.00000
    121      10.8339      0.00000
    122      11.0204      0.00000
    123      11.1217      0.00000
    124      11.3225      0.00000
    125      11.6893      0.00000
    126      11.7152      0.00000
    127      11.8011      0.00000
    128      11.8041      0.00000
    129      12.0508      0.00000
    130      12.2660      0.00000
    131      12.4614      0.00000
    132      12.5551      0.00000
    133      12.8592      0.00000
    134      12.8638      0.00000
    135      12.8954      0.00000
    136      13.0152      0.00000
    137      13.0503      0.00000
    138      13.0787      0.00000
    139      13.2259      0.00000
    140      13.2324      0.00000
    141      13.3671      0.00000
    142      13.3797      0.00000
    143      13.4954      0.00000
    144      13.8851      0.00000
    145      14.0030      0.00000
    146      14.0466      0.00000
    147      14.5083      0.00000
    148      14.5842      0.00000
    149      14.6736      0.00000
    150      15.2069      0.00000
    151      15.2651      0.00000
    152      15.4111      0.00000
    153      15.4396      0.00000
    154      15.5259      0.00000
    155      15.5830      0.00000
    156      15.6054      0.00000
    157      15.7117      0.00000
    158      15.7314      0.00000
    159      15.7376      0.00000
    160      15.7418      0.00000
    161      16.0346      0.00000
    162      16.1918      0.00000
    163      16.4011      0.00000
    164      16.4818      0.00000
    165      16.5029      0.00000
    166      17.1963      0.00000
    167      17.4748      0.00000
    168      17.5660      0.00000
    169      17.6856      0.00000
    170      17.7147      0.00000
    171      17.7174      0.00000
    172      17.7707      0.00000
    173      17.7745      0.00000
    174      17.8400      0.00000
    175      17.8624      0.00000
    176      17.9036      0.00000
    177      17.9519      0.00000
    178      18.1503      0.00000
    179      18.1575      0.00000
    180      18.4909      0.00000
    181      18.5432      0.00000
    182      18.6256      0.00000
    183      18.6917      0.00000
    184      18.6947      0.00000
    185      18.7669      0.00000
    186      18.7764      0.00000
    187      18.7764      0.00000
    188      18.8284      0.00000
    189      18.8547      0.00000
    190      18.9477      0.00000
    191      19.0465      0.00000
    192      19.0514      0.00000
    193      19.0576      0.00000
    194      19.0624      0.00000
    195      19.4914      0.00000
    196      19.5253      0.00000
    197      19.5441      0.00000
    198      19.5678      0.00000
    199      19.5902      0.00000
    200      19.6057      0.00000
    201      19.6613      0.00000
    202      19.6708      0.00000
    203      19.7752      0.00000
    204      19.8325      0.00000
    205      19.8591      0.00000
    206      19.8784      0.00000
    207      19.9155      0.00000
    208      19.9478      0.00000
    209      20.0406      0.00000
    210      20.1805      0.00000
    211      20.2076      0.00000
    212      20.3913      0.00000
    213      20.5534      0.00000
    214      20.5808      0.00000
    215      20.7269      0.00000
    216      20.7433      0.00000
    217      20.8224      0.00000
    218      20.8865      0.00000
    219      20.9075      0.00000
    220      20.9378      0.00000
    221      20.9900      0.00000
    222      21.0050      0.00000
    223      21.0906      0.00000
    224      21.1175      0.00000
    225      21.7908      0.00000
    226      21.7946      0.00000
    227      21.8313      0.00000
    228      21.8526      0.00000
    229      22.0456      0.00000
    230      22.1559      0.00000
    231      22.1624      0.00000
    232      22.4006      0.00000
    233      22.4135      0.00000
    234      22.7501      0.00000
    235      23.0444      0.00000
    236      23.0686      0.00000
    237      23.1948      0.00000
    238      23.3843      0.00000
    239      23.5896      0.00000
    240      23.5972      0.00000
    241      23.6818      0.00000
    242      24.0367      0.00000
    243      24.0674      0.00000
    244      24.2956      0.00000
    245      24.5107      0.00000
    246      24.6645      0.00000
    247      24.7850      0.00000
    248      25.0226      0.00000
    249      25.2781      0.00000
    250      25.5470      0.00000
    251      25.6095      0.00000
    252      25.6743      0.00000
    253      25.7737      0.00000
    254      26.0187      0.00000
    255      26.3048      0.00000
    256      26.4927      0.00000
    257      26.5854      0.00000
    258      26.7327      0.00000
    259      26.7939      0.00000
    260      26.9638      0.00000
    261      27.0121      0.00000
    262      27.0142      0.00000
    263      27.0695      0.00000
    264      27.2040      0.00000
    265      27.2201      0.00000
    266      27.4025      0.00000
    267      27.4137      0.00000
    268      27.4226      0.00000
    269      27.4810      0.00000
    270      27.4941      0.00000
    271      27.5256      0.00000
    272      27.5425      0.00000
    273      27.6458      0.00000
    274      27.7885      0.00000
    275      27.8785      0.00000
    276      27.8855      0.00000
    277      27.9317      0.00000
    278      28.0261      0.00000
    279      28.0387      0.00000
    280      28.0621      0.00000
    281      28.1775      0.00000
    282      28.2075      0.00000
    283      28.2884      0.00000
    284      28.3007      0.00000
    285      28.4803      0.00000
    286      28.4910      0.00000
    287      28.6412      0.00000
    288      28.6805      0.00000
    289      28.7435      0.00000
    290      28.8275      0.00000
    291      28.8615      0.00000
    292      28.8764      0.00000
    293      28.9170      0.00000
    294      28.9462      0.00000
    295      28.9572      0.00000
    296      29.0043      0.00000
    297      29.0766      0.00000
    298      29.0791      0.00000
    299      29.1487      0.00000
    300      29.1552      0.00000
    301      29.2908      0.00000
    302      29.3115      0.00000
    303      29.3767      0.00000
    304      29.3957      0.00000
    305      29.5635      0.00000
    306      29.6191      0.00000
    307      29.6991      0.00000
    308      29.7544      0.00000
    309      29.8463      0.00000
    310      29.9650      0.00000
    311      29.9735      0.00000
    312      30.0280      0.00000
    313      30.0706      0.00000
    314      30.0805      0.00000
    315      30.1260      0.00000
    316      30.2503      0.00000
    317      30.3319      0.00000
    318      30.3522      0.00000
    319      30.4365      0.00000
    320      30.4899      0.00000
    321      30.5538      0.00000
    322      30.6278      0.00000
    323      30.6772      0.00000
    324      30.9008      0.00000
    325      30.9999      0.00000
    326      31.0643      0.00000
    327      31.0683      0.00000
    328      31.6332      0.00000
    329      31.8615      0.00000
    330      32.0727      0.00000
    331      32.4548      0.00000
    332      32.6811      0.00000
    333      32.8468      0.00000
    334      33.0178      0.00000
    335      33.0486      0.00000
    336      33.1559      0.00000
    337      33.5923      0.00000
    338      33.6000      0.00000
    339      33.8201      0.00000
    340      34.1316      0.00000
    341      34.1527      0.00000
    342      34.2895      0.00000
    343      34.3658      0.00000
    344      34.4102      0.00000
    345      34.4610      0.00000
    346      34.5654      0.00000
    347      34.5705      0.00000
    348      34.8576      0.00000
    349      34.8612      0.00000
    350      34.8751      0.00000
    351      35.2704      0.00000
    352      35.3629      0.00000
    353      35.4041      0.00000
    354      35.4259      0.00000
    355      35.5293      0.00000
    356      35.6140      0.00000
    357      35.6429      0.00000
    358      35.7069      0.00000
    359      35.9380      0.00000
    360      35.9864      0.00000
    361      36.0786      0.00000
    362      36.0873      0.00000
    363      36.1478      0.00000
    364      36.2110      0.00000
    365      36.2425      0.00000
    366      36.3240      0.00000
    367      36.3468      0.00000
    368      36.6492      0.00000
    369      36.8455      0.00000
    370      37.0048      0.00000
    371      37.2576      0.00000
    372      37.3380      0.00000
    373      37.5682      0.00000
    374      37.5947      0.00000
    375      37.7861      0.00000
    376      37.8200      0.00000
    377      38.2601      0.00000
    378      38.3213      0.00000
    379      38.5064      0.00000
    380      38.5401      0.00000
    381      38.9744      0.00000
    382      39.1480      0.00000
    383      39.2041      0.00000
    384      39.2250      0.00000

 k-point     2 :       0.3333   -0.0000    0.0000
  band No.  band energies     occupation 
      1     -20.8478      1.00000
      2     -20.8434      1.00000
      3     -20.8382      1.00000
      4     -20.8341      1.00000
      5     -15.5186      1.00000
      6     -15.4990      1.00000
      7     -15.2578      1.00000
      8     -15.2410      1.00000
      9     -14.9714      1.00000
     10     -14.9670      1.00000
     11     -14.8807      1.00000
     12     -14.8614      1.00000
     13     -14.8143      1.00000
     14     -14.8058      1.00000
     15     -14.7402      1.00000
     16     -14.7390      1.00000
     17      -6.9294      1.00000
     18      -6.8897      1.00000
     19      -6.8585      1.00000
     20      -6.8211      1.00000
     21      -6.8168      1.00000
     22      -6.8086      1.00000
     23      -6.8068      1.00000
     24      -6.7945      1.00000
     25      -6.7753      1.00000
     26      -6.7375      1.00000
     27      -6.7206      1.00000
     28      -6.7123      1.00000
     29      -5.7375      1.00000
     30      -5.7325      1.00000
     31      -5.2145      1.00000
     32      -5.2041      1.00000
     33      -4.7978      1.00000
     34      -4.7864      1.00000
     35      -4.7405      1.00000
     36      -4.7149      1.00000
     37      -4.6218      1.00000
     38      -4.6206      1.00000
     39      -4.5197      1.00000
     40      -4.4962      1.00000
     41      -4.2119      1.00000
     42      -4.1940      1.00000
     43      -4.1496      1.00000
     44      -4.1160      1.00000
     45      -4.0326      1.00000
     46      -4.0230      1.00000
     47      -3.9296      1.00000
     48      -3.9193      1.00000
     49      -3.6243      1.00000
     50      -3.5777      1.00000
     51      -3.4355      1.00000
     52      -3.4079      1.00000
     53      -2.6252      1.00000
     54      -2.6043      1.00000
     55      -2.5041      1.00000
     56      -2.3157      1.00000
     57      -2.2381      1.00000
     58      -2.1989      1.00000
     59      -2.1737      1.00000
     60      -1.9676      1.00000
     61      -1.8946      1.00000
     62      -1.8785      1.00000
     63      -1.8320      1.00000
     64      -1.7711      1.00000
     65      -1.7293      1.00000
     66      -1.6988      1.00000
     67      -1.6624      1.00000
     68      -1.6618      1.00000
     69      -1.5295      1.00000
     70      -1.5228      1.00000
     71      -1.3955      1.00000
     72      -1.3359      1.00000
     73      -1.3118      1.00000
     74      -1.2761      1.00000
     75      -1.2521      1.00000
     76      -1.1568      1.00000
     77      -1.1561      1.00000
     78      -1.0837      1.00000
     79      -0.9366      1.00000
     80      -0.9305      1.00000
     81      -0.5706      1.00000
     82      -0.5063      1.00000
     83       1.0078      0.00000
     84       1.1138      0.00000
     85       5.6391      0.00000
     86       6.2379      0.00000
     87       6.8491      0.00000
     88       6.9073      0.00000
     89       7.2012      0.00000
     90       7.4205      0.00000
     91       7.5289      0.00000
     92       7.6221      0.00000
     93       7.8396      0.00000
     94       7.9096      0.00000
     95       8.0619      0.00000
     96       8.0801      0.00000
     97       8.2311      0.00000
     98       8.2768      0.00000
     99       8.3048      0.00000
    100       8.3926      0.00000
    101       8.5063      0.00000
    102       8.5953      0.00000
    103       8.6651      0.00000
    104       8.7572      0.00000
    105       8.8358      0.00000
    106       9.0040      0.00000
    107       9.1239      0.00000
    108       9.2332      0.00000
    109       9.3556      0.00000
    110       9.4221      0.00000
    111       9.4466      0.00000
    112       9.5539      0.00000
    113       9.7235      0.00000
    114       9.8128      0.00000
    115       9.8955      0.00000
    116      10.0931      0.00000
    117      10.4873      0.00000
    118      10.7102      0.00000
    119      10.7604      0.00000
    120      11.0537      0.00000
    121      11.1705      0.00000
    122      11.2263      0.00000
    123      11.2880      0.00000
    124      11.6174      0.00000
    125      11.7334      0.00000
    126      11.8644      0.00000
    127      11.8817      0.00000
    128      12.0089      0.00000
    129      12.2577      0.00000
    130      12.3537      0.00000
    131      12.3925      0.00000
    132      12.5433      0.00000
    133      12.6735      0.00000
    134      12.8870      0.00000
    135      12.9223      0.00000
    136      12.9561      0.00000
    137      12.9726      0.00000
    138      12.9736      0.00000
    139      13.1995      0.00000
    140      13.2803      0.00000
    141      13.4478      0.00000
    142      13.4869      0.00000
    143      13.6062      0.00000
    144      13.7486      0.00000
    145      13.8011      0.00000
    146      13.9953      0.00000
    147      14.1083      0.00000
    148      14.1901      0.00000
    149      14.3414      0.00000
    150      14.6237      0.00000
    151      14.6430      0.00000
    152      15.0264      0.00000
    153      15.1232      0.00000
    154      15.1784      0.00000
    155      15.2605      0.00000
    156      15.3268      0.00000
    157      15.3681      0.00000
    158      15.6363      0.00000
    159      15.6409      0.00000
    160      15.8003      0.00000
    161      15.9126      0.00000
    162      16.0460      0.00000
    163      16.1313      0.00000
    164      16.1993      0.00000
    165      16.2163      0.00000
    166      16.4343      0.00000
    167      16.6438      0.00000
    168      16.6760      0.00000
    169      16.9242      0.00000
    170      16.9424      0.00000
    171      17.0727      0.00000
    172      17.1610      0.00000
    173      17.3177      0.00000
    174      17.4401      0.00000
    175      17.4780      0.00000
    176      17.4867      0.00000
    177      17.6797      0.00000
    178      17.8461      0.00000
    179      17.8603      0.00000
    180      18.2144      0.00000
    181      18.3385      0.00000
    182      18.3972      0.00000
    183      18.4574      0.00000
    184      18.5040      0.00000
    185      18.6724      0.00000
    186      18.7380      0.00000
    187      18.7955      0.00000
    188      18.8246      0.00000
    189      18.8773      0.00000
[...]
   44.773762    0.784172    0.784227    0.783985   -0.001035    0.000065   -0.000067
   44.920081    0.786323    0.786487    0.786180   -0.000943   -0.000026    0.000086
   45.066401    0.788142    0.788493    0.788148   -0.001034   -0.000212   -0.000052
   45.212720    0.789945    0.790152    0.789806   -0.000977   -0.000154   -0.000101
   45.359040    0.791713    0.791905    0.791781   -0.000920   -0.000013   -0.000014
   45.505359    0.793503    0.793745    0.793539   -0.000974    0.000015    0.000106
   45.651678    0.795495    0.795626    0.795569   -0.000881   -0.000036    0.000070
   45.797998    0.797451    0.797421    0.797508   -0.000960   -0.000070   -0.000049
   45.944317    0.799300    0.799315    0.799342   -0.000873   -0.000031   -0.000015
   46.090637    0.800945    0.801007    0.801101   -0.000751   -0.000047   -0.000053
   46.236956    0.802722    0.802726    0.802762   -0.000853   -0.000123   -0.000089
   46.383276    0.804596    0.804476    0.804581   -0.000880   -0.000137   -0.000066
   46.529595    0.806462    0.806373    0.806417   -0.000871   -0.000035   -0.000083
   46.675915    0.808132    0.808182    0.808231   -0.000803   -0.000008   -0.000041
   46.822234    0.809676    0.809711    0.809862   -0.000841    0.000003    0.000007
   46.968554    0.811299    0.811252    0.811464   -0.000895    0.000004   -0.000006
   47.114873    0.813047    0.813120    0.813306   -0.000894    0.000033   -0.000009
   47.261193    0.814801    0.814808    0.814930   -0.000953    0.000028   -0.000022
   47.407512    0.816349    0.816436    0.816627   -0.000898   -0.000039   -0.000078
   47.553832    0.817777    0.817877    0.818079   -0.000784   -0.000012   -0.000015
   47.700151    0.819207    0.819244    0.819526   -0.000779   -0.000033   -0.000067
   47.846471    0.820704    0.820809    0.821065   -0.000772   -0.000015   -0.000006
   47.992790    0.822220    0.822399    0.822509   -0.000762    0.000041   -0.000054
   48.139110    0.823718    0.823865    0.823998   -0.000804   -0.000005   -0.000085
   48.285429    0.825229    0.825335    0.825462   -0.000785   -0.000013    0.000001
   48.431749    0.826593    0.826720    0.826803   -0.000793    0.000036    0.000004
   48.578068    0.827893    0.828028    0.828188   -0.000842    0.000055   -0.000042
   48.724388    0.829198    0.829242    0.829505   -0.000860   -0.000054   -0.000009
   48.870707    0.830470    0.830541    0.830751   -0.000871   -0.000037   -0.000027
   49.017027    0.831673    0.831899    0.831956   -0.000838   -0.000007   -0.000009
   49.163346    0.832988    0.833088    0.833289   -0.000822    0.000018   -0.000064
   49.309666    0.834247    0.834271    0.834486   -0.000824    0.000010   -0.000042
   49.455985    0.835456    0.835443    0.835563   -0.000795   -0.000033   -0.000053
   49.602305    0.836579    0.836620    0.836738   -0.000795   -0.000036    0.000008
   49.748624    0.837740    0.837666    0.837825   -0.000789   -0.000025    0.000048
   49.894943    0.838995    0.838849    0.839013   -0.000830   -0.000017    0.000047
   50.041263    0.840097    0.840055    0.840195   -0.000819   -0.000006   -0.000056
   50.187582    0.841257    0.841321    0.841292   -0.000790   -0.000026   -0.000060
   50.333902    0.842313    0.842376    0.842342   -0.000737   -0.000056    0.000005
   50.480221    0.843362    0.843495    0.843486   -0.000794   -0.000070    0.000011
   50.626541    0.844542    0.844556    0.844513   -0.000740   -0.000025    0.000027
   50.772860    0.845731    0.845633    0.845579   -0.000703    0.000065    0.000095
   50.919180    0.846806    0.846759    0.846756   -0.000685    0.000085    0.000092
   51.065499    0.847857    0.847849    0.847837   -0.000638    0.000096    0.000026
   51.211819    0.848928    0.848927    0.848843   -0.000640    0.000059   -0.000013
   51.358138    0.849894    0.849926    0.849820   -0.000667   -0.000013    0.000014
   51.504458    0.850904    0.850877    0.850964   -0.000654   -0.000072   -0.000004
   51.650777    0.851873    0.851866    0.851951   -0.000623   -0.000068   -0.000022
   51.797097    0.852904    0.852874    0.853000   -0.000621   -0.000028   -0.000011
   51.943416    0.853911    0.853828    0.853931   -0.000668   -0.000025   -0.000021
   52.089736    0.854860    0.854784    0.854896   -0.000645   -0.000001   -0.000064
   52.236055    0.855852    0.855805    0.855967   -0.000622   -0.000064   -0.000071
   52.382375    0.856846    0.856781    0.856915   -0.000529   -0.000045   -0.000077
   52.528694    0.857799    0.857733    0.857816   -0.000526   -0.000051   -0.000049
   52.675014    0.858710    0.858697    0.858785   -0.000543   -0.000011   -0.000032
   52.821333    0.859603    0.859582    0.859620   -0.000562   -0.000018   -0.000029
   52.967653    0.860475    0.860416    0.860489   -0.000580    0.000011    0.000001
   53.113972    0.861312    0.861288    0.861340   -0.000603    0.000047    0.000033
   53.260292    0.862136    0.862166    0.862243   -0.000598    0.000000    0.000014
   53.406611    0.862958    0.863033    0.863138   -0.000580    0.000013    0.000012
   53.552931    0.863762    0.863749    0.863939   -0.000566    0.000013   -0.000000
   53.699250    0.864588    0.864624    0.864784   -0.000574    0.000020   -0.000028
   53.845569    0.865500    0.865575    0.865707   -0.000577    0.000034   -0.000020
   53.991889    0.866467    0.866493    0.866581   -0.000575    0.000005    0.000002
   54.138208    0.867334    0.867367    0.867402   -0.000560   -0.000004    0.000008
   54.284528    0.868159    0.868201    0.868232   -0.000539    0.000009   -0.000000
   54.430847    0.869005    0.869046    0.869083   -0.000535   -0.000007   -0.000010
   54.577167    0.869840    0.869887    0.869920   -0.000512   -0.000019    0.000019
   54.723486    0.870730    0.870765    0.870817   -0.000496   -0.000015   -0.000003
   54.869806    0.871598    0.871610    0.871670   -0.000499   -0.000012   -0.000009
   55.016125    0.872429    0.872472    0.872514   -0.000515    0.000003    0.000000
   55.162445    0.873312    0.873360    0.873407   -0.000506   -0.000001    0.000013
   55.308764    0.874134    0.874182    0.874240   -0.000489   -0.000002    0.000015
   55.455084    0.874974    0.875009    0.875053   -0.000484   -0.000007    0.000012
   55.601403    0.875791    0.875817    0.875873   -0.000489   -0.000004    0.000017
   55.747723    0.876598    0.876605    0.876681   -0.000485    0.000002    0.000010
   55.894042    0.877372    0.877384    0.877430   -0.000477    0.000015    0.000007
   56.040362    0.878176    0.878189    0.878237   -0.000469    0.000012    0.000007
   56.186681    0.878941    0.878950    0.879007   -0.000471    0.000013    0.000004
   56.333001    0.879697    0.879718    0.879758   -0.000477    0.000014    0.000009
   56.479320    0.880429    0.880469    0.880506   -0.000468    0.000015    0.000007
   56.625640    0.881160    0.881193    0.881230   -0.000454    0.000008    0.000013
   56.771959    0.881895    0.881917    0.881957   -0.000455    0.000010    0.000016
   56.918279    0.882644    0.882646    0.882707   -0.000453    0.000003    0.000012
   57.064598    0.883373    0.883363    0.883435   -0.000437   -0.000001    0.000004
   57.210918    0.884064    0.884059    0.884128   -0.000429   -0.000008   -0.000006
   57.357237    0.884759    0.884757    0.884817   -0.000429    0.000004    0.000006
   57.503557    0.885453    0.885454    0.885499   -0.000436    0.000008    0.000006
   57.649876    0.886120    0.886130    0.886172   -0.000431   -0.000009   -0.000008
   57.796196    0.886795    0.886795    0.886846   -0.000430   -0.000003   -0.000016
   57.942515    0.887473    0.887479    0.887529   -0.000425    0.000001   -0.000016
   58.088834    0.888137    0.888161    0.888201   -0.000414   -0.000010   -0.000010
   58.235154    0.888782    0.888801    0.888845   -0.000414   -0.000016    0.000002
   58.381473    0.889428    0.889455    0.889485   -0.000415   -0.000013   -0.000003
   58.527793    0.890060    0.890084    0.890118   -0.000408   -0.000013    0.000001
   58.674112    0.890698    0.890724    0.890754   -0.000400   -0.000011    0.000004
   58.820432    0.891308    0.891340    0.891368   -0.000390   -0.000011   -0.000002
   58.966751    0.891935    0.891950    0.891995   -0.000400   -0.000006   -0.000001
   59.113071    0.892548    0.892553    0.892593   -0.000398   -0.000009   -0.000004
   59.259390    0.893150    0.893162    0.893206   -0.000392   -0.000005   -0.000001
   59.405710    0.893752    0.893769    0.893814   -0.000388   -0.000004   -0.000006
   59.552029    0.894346    0.894356    0.894412   -0.000378   -0.000006   -0.000007
   59.698349    0.894957    0.894958    0.895014   -0.000377   -0.000011   -0.000007
   59.844668    0.895551    0.895562    0.895604   -0.000378   -0.000013    0.000003
   59.990988    0.896137    0.896155    0.896193   -0.000371   -0.000012    0.000001
   60.137307    0.896711    0.896726    0.896770   -0.000377   -0.000007   -0.000003
   60.283627    0.897281    0.897294    0.897332   -0.000367   -0.000007   -0.000005
   60.429946    0.897854    0.897867    0.897908   -0.000361   -0.000007   -0.000006
   60.576266    0.898430    0.898444    0.898482   -0.000358   -0.000006   -0.000005
   60.722585    0.899003    0.899013    0.899052   -0.000358   -0.000008   -0.000007
   60.868905    0.899569    0.899579    0.899616   -0.000355   -0.000006   -0.000004
   61.015224    0.900125    0.900136    0.900174   -0.000353   -0.000005   -0.000002
   61.161544    0.900677    0.900688    0.900727   -0.000350   -0.000005   -0.000002
   61.307863    0.901223    0.901234    0.901273   -0.000348   -0.000005   -0.000002
   61.454183    0.901764    0.901774    0.901813   -0.000345   -0.000004   -0.000002
   61.600502    0.902298    0.902309    0.902347   -0.000343   -0.000004   -0.000002
   61.746822    0.902828    0.902838    0.902877   -0.000340   -0.000004   -0.000001
   61.893141    0.903353    0.903362    0.903401   -0.000337   -0.000004   -0.000001
   62.039461    0.903872    0.903882    0.903920   -0.000335   -0.000004   -0.000001
   62.185780    0.904387    0.904397    0.904435   -0.000332   -0.000004   -0.000001
   62.332099    0.904897    0.904907    0.904945   -0.000330   -0.000004   -0.000001
   62.478419    0.905403    0.905412    0.905450   -0.000328   -0.000004   -0.000001
   62.624738    0.905904    0.905913    0.905951   -0.000325   -0.000004   -0.000001
   62.771058    0.906401    0.906410    0.906448   -0.000323   -0.000004   -0.000001
   62.917377    0.906893    0.906902    0.906940   -0.000320   -0.000004   -0.000001
   63.063697    0.907381    0.907390    0.907428   -0.000318   -0.000004   -0.000001
   63.210016    0.907865    0.907874    0.907912   -0.000316   -0.000004   -0.000001
   63.356336    0.908345    0.908353    0.908391   -0.000313   -0.000004   -0.000001
   63.502655    0.908821    0.908829    0.908867   -0.000311   -0.000004   -0.000001
   63.648975    0.909292    0.909300    0.909338   -0.000309   -0.000004   -0.000001
   63.795294    0.909760    0.909768    0.909805   -0.000307   -0.000004   -0.000001
   63.941614    0.910224    0.910232    0.910269   -0.000304   -0.000004   -0.000001
   64.087933    0.910684    0.910691    0.910729   -0.000302   -0.000003   -0.000001
   64.234253    0.911140    0.911147    0.911185   -0.000300   -0.000003   -0.000001
   64.380572    0.911592    0.911600    0.911637   -0.000298   -0.000003   -0.000001
   64.526892    0.912041    0.912048    0.912085   -0.000296   -0.000003   -0.000001
   64.673211    0.912486    0.912493    0.912530   -0.000294   -0.000003   -0.000001
   64.819531    0.912927    0.912934    0.912971   -0.000292   -0.000003   -0.000001
   64.965850    0.913365    0.913372    0.913409   -0.000290   -0.000003   -0.000001
   65.112170    0.913799    0.913806    0.913843   -0.000288   -0.000003   -0.000001
   65.258489    0.914230    0.914237    0.914274   -0.000286   -0.000003   -0.000001
   65.404809    0.914657    0.914664    0.914701   -0.000284   -0.000003   -0.000001
   65.551128    0.915081    0.915088    0.915125   -0.000282   -0.000003   -0.000001
   65.697448    0.915502    0.915508    0.915545   -0.000280   -0.000003   -0.000001
   65.843767    0.915919    0.915926    0.915962   -0.000278   -0.000003   -0.000001
   65.990087    0.916333    0.916339    0.916376   -0.000276   -0.000003   -0.000001
   66.136406    0.916744    0.916750    0.916787   -0.000274   -0.000003   -0.000001
   66.282725    0.917151    0.917158    0.917194   -0.000272   -0.000003   -0.000001
   66.429045    0.917556    0.917562    0.917598   -0.000270   -0.000003   -0.000001
   66.575364    0.917957    0.917963    0.917999   -0.000268   -0.000003   -0.000001
   66.721684    0.918355    0.918361    0.918397   -0.000267   -0.000003   -0.000001
   66.868003    0.918750    0.918756    0.918792   -0.000265   -0.000003   -0.000001
   67.014323    0.919142    0.919148    0.919184   -0.000263   -0.000003   -0.000001
   67.160642    0.919531    0.919537    0.919573   -0.000261   -0.000003   -0.000001
   67.306962    0.919918    0.919923    0.919959   -0.000260   -0.000003   -0.000001
   67.453281    0.920301    0.920306    0.920342   -0.000258   -0.000003   -0.000001
   67.599601    0.920681    0.920687    0.920722   -0.000256   -0.000003   -0.000001
   67.745920    0.921058    0.921064    0.921100   -0.000254   -0.000003   -0.000001
   67.892240    0.921433    0.921438    0.921474   -0.000253   -0.000003   -0.000001
   68.038559    0.921805    0.921810    0.921846   -0.000251   -0.000003   -0.000001
   68.184879    0.922174    0.922179    0.922215   -0.000249   -0.000003   -0.000001
   68.331198    0.922540    0.922545    0.922581   -0.000248   -0.000003   -0.000000
   68.477518    0.922904    0.922909    0.922944   -0.000246   -0.000003   -0.000000
   68.623837    0.923265    0.923270    0.923305   -0.000245   -0.000003   -0.000000
   68.770157    0.923623    0.923628    0.923663   -0.000243   -0.000003   -0.000000
   68.916476    0.923978    0.923984    0.924019   -0.000241   -0.000003   -0.000000
   69.062796    0.924332    0.924336    0.924372   -0.000240   -0.000003   -0.000000
   69.209115    0.924682    0.924687    0.924722   -0.000238   -0.000003   -0.000000
   69.355435    0.925030    0.925035    0.925070   -0.000237   -0.000003   -0.000000
   69.501754    0.925375    0.925380    0.925415   -0.000235   -0.000003   -0.000000
   69.648074    0.925718    0.925723    0.925758   -0.000234   -0.000003   -0.000000
   69.794393    0.926059    0.926063    0.926098   -0.000232   -0.000003   -0.000000
   69.940713    0.926397    0.926401    0.926436   -0.000231   -0.000003   -0.000000
   70.087032    0.926732    0.926737    0.926771   -0.000230   -0.000003   -0.000000
   70.233352    0.927065    0.927070    0.927104   -0.000228   -0.000003   -0.000000
   70.379671    0.927396    0.927401    0.927435   -0.000227   -0.000002   -0.000000
   70.525990    0.927724    0.927729    0.927763   -0.000225   -0.000002   -0.000000
   70.672310    0.928051    0.928055    0.928089   -0.000224   -0.000002   -0.000000
   70.818629    0.928374    0.928379    0.928413   -0.000223   -0.000002   -0.000000
   70.964949    0.928696    0.928700    0.928735   -0.000221   -0.000002   -0.000000
   71.111268    0.929015    0.929020    0.929054   -0.000220   -0.000002   -0.000000
   71.257588    0.929332    0.929337    0.929371   -0.000219   -0.000002   -0.000000
   71.403907    0.929647    0.929651    0.929686   -0.000217   -0.000002   -0.000000
   71.550227    0.929960    0.929964    0.929998   -0.000216   -0.000002   -0.000000
   71.696546    0.930270    0.930275    0.930309   -0.000215   -0.000002   -0.000000
   71.842866    0.930579    0.930583    0.930617   -0.000213   -0.000002   -0.000000
   71.989185    0.930885    0.930889    0.930923   -0.000212   -0.000002   -0.000000
   72.135505    0.931189    0.931193    0.931227   -0.000211   -0.000002   -0.000000
   72.281824    0.931491    0.931495    0.931529   -0.000209   -0.000002   -0.000000
   72.428144    0.931791    0.931795    0.931829   -0.000208   -0.000002   -0.000000
   72.574463    0.932089    0.932093    0.932127   -0.000207   -0.000002   -0.000000
   72.720783    0.932385    0.932389    0.932423   -0.000206   -0.000002   -0.000000
   72.867102    0.932679    0.932683    0.932716   -0.000205   -0.000002   -0.000000
   73.013422    0.932971    0.932975    0.933008   -0.000203   -0.000002   -0.000000
 
 The outermost node in the dielectric function lies at epsilon=  20.6


--------------------------------------------------------------------------------------------------------


    OPTICS:  cpu time    3.9870: real time    4.3985
    4ORBIT:  cpu time    0.0000: real time    0.0000
 


 total charge     
 
# of ion       s       p       d       tot
------------------------------------------
    1        1.590   3.552   0.000   5.142
    2        1.590   3.552   0.000   5.142
    3        1.595   3.517   0.000   5.112
    4        1.595   3.517   0.000   5.112
    5        1.595   3.517   0.000   5.112
    6        1.595   3.517   0.000   5.111
    7        1.590   3.552   0.000   5.142
    8        1.590   3.552   0.000   5.142
    9        1.591   3.532   0.000   5.123
   10        1.591   3.532   0.000   5.123
   11        1.591   3.532   0.000   5.123
   12        1.591   3.532   0.000   5.123
   13        0.329   0.273   9.152   9.754
   14        0.328   0.273   9.152   9.754
   15        0.346   0.322   9.103   9.771
   16        0.346   0.322   9.103   9.771
   17        2.252   4.728   0.016   6.997
   18        2.253   4.729   0.016   6.998
   19        2.251   4.728   0.016   6.996
   20        2.252   4.729   0.016   6.997
--------------------------------------------------
tot         29.462  62.506  36.576 128.544
 


 magnetization (x)
 
# of ion       s       p       d       tot
------------------------------------------
    1        0.002   0.036   0.000   0.038
    2        0.002   0.036   0.000   0.038
    3       -0.000  -0.029   0.000  -0.030
    4       -0.000  -0.029   0.000  -0.030
    5       -0.000  -0.029   0.000  -0.030
    6       -0.000  -0.029   0.000  -0.030
    7        0.002   0.036   0.000   0.038
    8        0.002   0.036   0.000   0.038
    9       -0.003  -0.092   0.000  -0.095
   10       -0.003  -0.091   0.000  -0.094
   11       -0.003  -0.092   0.000  -0.095
   12       -0.003  -0.091   0.000  -0.094
   13        0.004   0.013  -0.317  -0.300
   14        0.004   0.013  -0.317  -0.300
   15        0.001  -0.012   0.524   0.513
   16        0.001  -0.012   0.524   0.513
   17        0.000   0.000   0.000   0.000
   18        0.000   0.000   0.000   0.000
   19        0.000   0.000   0.000   0.000
   20        0.000   0.000   0.000   0.000
--------------------------------------------------
tot          0.004  -0.336   0.415   0.083
 

 total amount of memory used by VASP MPI-rank0   599366. kBytes
=======================================================================

   base      :      30000. kBytes
   nonl-proj :     167587. kBytes
   fftplans  :      14727. kBytes
   grid      :      38109. kBytes
   one-center:        622. kBytes
   HF        :        259. kBytes
   nonlr-proj:      18278. kBytes
   wavefun   :     329784. kBytes
 
  
  
 General timing and accounting informations for this job:
 ========================================================
  
                  Total CPU time used (sec):    17347.766
                            User time (sec):    17302.970
                          System time (sec):       44.794
                         Elapsed time (sec):    17433.424
  
                   Maximum memory used (kb):     1479476.
                   Average memory used (kb):           0.
  
                          Minor page faults:      3496873
                          Major page faults:           16
                 Voluntary context switches:         7681
