ESCALE ; pCOHP file generated by LOBSTER. Energy is shifted such that the Fermi level lies at 0 eV.
        15          2        601  -2.82411e+01   1.80894e+00  -3.19941e+00 
Average
No.1:O60->H147(2.1975049804192897)
No.2:O60[2s]->H147[1s](2.1975049804192897)
No.2:O60[2p_y]->H147[1s](2.1975049804192897)
No.2:O60[2p_z]->H147[1s](2.1975049804192897)
No.2:O60[2p_x]->H147[1s](2.1975049804192897)
No.3:O51->H148(2.6757643180964013)
No.4:O51[2s]->H148[1s](2.6757643180964013)
No.4:O51[2p_y]->H148[1s](2.6757643180964013)
No.4:O51[2p_z]->H148[1s](2.6757643180964013)
No.4:O51[2p_x]->H148[1s](2.6757643180964013)
No.5:O60->H147(2.1975049804192897)
No.6:O51->H148(2.6757643180964013)
No.7:O53->H147(2.9708380494658626)
No.8:O60->H147(2.1975049804192897)
-25.04174   0.00000  -0.00007   0.00000  -0.00024   0.00000  -0.00052   0.00000   0.00022   0.00000   0.00008   0.00000  -0.00001   0.00000  -0.00002   0.00000  -0.00005   0.00000  -0.00000   0.00000   0.00003   0.00000  -0.00000   0.00000  -0.00024   0.00000  -0.00002   0.00000  -0.00001   0.00000  -0.00024   0.00000  -0.00007   0.00000  -0.00024   0.00000  -0.00052   0.00000   0.00022   0.00000   0.00008   0.00000  -0.00001   0.00000  -0.00002   0.00000  -0.00005   0.00000  -0.00000   0.00000   0.00003   0.00000  -0.00000   0.00000  -0.00024   0.00000  -0.00002   0.00000  -0.00001   0.00000  -0.00024
-24.99165   0.00000  -0.00007   0.00000  -0.00024   0.00000  -0.00052   0.00000   0.00022   0.00000   0.00008   0.00000  -0.00001   0.00000  -0.00002   0.00000  -0.00005   0.00000  -0.00000   0.00000   0.00003   0.00000  -0.00000   0.00000  -0.00024   0.00000  -0.00002   0.00000  -0.00001   0.00000  -0.00024   0.00000  -0.00007   0.00000  -0.00024   0.00000  -0.00052   0.00000   0.00022   0.00000   0.00008   0.00000  -0.00001   0.00000  -0.00002   0.00000  -0.00005   0.00000  -0.00000   0.00000   0.00003   0.00000  -0.00000   0.00000  -0.00024   0.00000  -0.00002   0.00000  -0.00001   0.00000  -0.00024
-24.94157   0.00000  -0.00007   0.00000  -0.00024   0.00000  -0.00052   0.00000   0.00022   0.00000   0.00008   0.00000  -0.00001   0.00000  -0.00002   0.00000  -0.00005   0.00000  -0.00000   0.00000   0.00003   0.00000  -0.00000   0.00000  -0.00024   0.00000  -0.00002   0.00000  -0.00001   0.00000  -0.00024   0.00000  -0.00007   0.00000  -0.00024   0.00000  -0.00052   0.00000   0.00022   0.00000   0.00008   0.00000  -0.00001   0.00000  -0.00002   0.00000  -0.00005   0.00000  -0.00000   0.00000   0.00003   0.00000  -0.00000   0.00000  -0.00024   0.00000  -0.00002   0.00000  -0.00001   0.00000  -0.00024
-24.89149   0.00000  -0.00007   0.00000  -0.00024   0.00000  -0.00052   0.00000   0.00022   0.00000   0.00008   0.00000  -0.00001   0.00000  -0.00002   0.00000  -0.00005   0.00000  -0.00000   0.00000   0.00003   0.00000  -0.00000   0.00000  -0.00024   0.00000  -0.00002   0.00000  -0.00001   0.00000  -0.00024   0.00000  -0.00007   0.00000  -0.00024   0.00000  -0.00052   0.00000   0.00022   0.00000   0.00008   0.00000  -0.00001   0.00000  -0.00002   0.00000  -0.00005   0.00000  -0.00000   0.00000   0.00003   0.00000  -0.00000   0.00000  -0.00024   0.00000  -0.00002   0.00000  -0.00001   0.00000  -0.00024
-24.84140   0.00000  -0.00007   0.00000  -0.00024   0.00000  -0.00052   0.00000   0.00022   0.00000   0.00008   0.00000  -0.00001   0.00000  -0.00002   0.00000  -0.00005   0.00000  -0.00000   0.00000   0.00003   0.00000  -0.00000   0.00000  -0.00024   0.00000  -0.00002   0.00000  -0.00001   0.00000  -0.00024   0.00000  -0.00007   0.00000  -0.00024   0.00000  -0.00052   0.00000   0.00022   0.00000   0.00008   0.00000  -0.00001   0.00000  -0.00002   0.00000  -0.00005   0.00000  -0.00000   0.00000   0.00003   0.00000  -0.00000   0.00000  -0.00024   0.00000  -0.00002   0.00000  -0.00001   0.00000  -0.00024
-24.79132   0.00000  -0.00007   0.00000  -0.00024   0.00000  -0.00052   0.00000   0.00022   0.00000   0.00008   0.00000  -0.00001   0.00000  -0.00002   0.00000  -0.00005   0.00000  -0.00000   0.00000   0.00003   0.00000  -0.00000   0.00000  -0.00024   0.00000  -0.00002   0.00000  -0.00001   0.00000  -0.00024   0.00000  -0.00007   0.00000  -0.00024   0.00000  -0.00052   0.00000   0.00022   0.00000   0.00008   0.00000  -0.00001   0.00000  -0.00002   0.00000  -0.00005   0.00000  -0.00000   0.00000   0.00003   0.00000  -0.00000   0.00000  -0.00024   0.00000  -0.00002   0.00000  -0.00001   0.00000  -0.00024
-24.74124   0.00000  -0.00007   0.00000  -0.00024   0.00000  -0.00052   0.00000   0.00022   0.00000   0.00008   0.00000  -0.00001   0.00000  -0.00002   0.00000  -0.00005   0.00000  -0.00000   0.00000   0.00003   0.00000  -0.00000   0.00000  -0.00024   0.00000  -0.00002   0.00000  -0.00001   0.00000  -0.00024   0.00000  -0.00007   0.00000  -0.00024   0.00000  -0.00052   0.00000   0.00022   0.00000   0.00008   0.00000  -0.00001   0.00000  -0.00002   0.00000  -0.00005   0.00000  -0.00000   0.00000   0.00003   0.00000  -0.00000   0.00000  -0.00024   0.00000  -0.00002   0.00000  -0.00001   0.00000  -0.00024
-24.69115   0.00000  -0.00007   0.00000  -0.00024   0.00000  -0.00052   0.00000   0.00022   0.00000   0.00008   0.00000  -0.00001   0.00000  -0.00002   0.00000  -0.00005   0.00000  -0.00000   0.00000   0.00003   0.00000  -0.00000   0.00000  -0.00024   0.00000  -0.00002   0.00000  -0.00001   0.00000  -0.00024   0.00000  -0.00007   0.00000  -0.00024   0.00000  -0.00052   0.00000   0.00022   0.00000   0.00008   0.00000  -0.00001   0.00000  -0.00002   0.00000  -0.00005   0.00000  -0.00000   0.00000   0.00003   0.00000  -0.00000   0.00000  -0.00024   0.00000  -0.00002   0.00000  -0.00001   0.00000  -0.00024
-24.64107   0.00000  -0.00007   0.00000  -0.00024   0.00000  -0.00052   0.00000   0.00022   0.00000   0.00008   0.00000  -0.00001   0.00000  -0.00002   0.00000  -0.00005   0.00000  -0.00000   0.00000   0.00003   0.00000  -0.00000   0.00000  -0.00024   0.00000  -0.00002   0.00000  -0.00001   0.00000  -0.00024   0.00000  -0.00007   0.00000  -0.00024   0.00000  -0.00052   0.00000   0.00022   0.00000   0.00008   0.00000  -0.00001   0.00000  -0.00002   0.00000  -0.00005   0.00000  -0.00000   0.00000   0.00003   0.00000  -0.00000   0.00000  -0.00024   0.00000  -0.00002   0.00000  -0.00001   0.00000  -0.00024
-24.59098   0.00000  -0.00007   0.00000  -0.00024   0.00000  -0.00052   0.00000   0.00022   0.00000   0.00008   0.00000  -0.00001   0.00000  -0.00002   0.00000  -0.00005   0.00000  -0.00000   0.00000   0.00003   0.00000  -0.00000   0.00000  -0.00024   0.00000  -0.00002   0.00000  -0.00001   0.00000  -0.00024   0.00000  -0.00007   0.00000  -0.00024   0.00000  -0.00052   0.00000   0.00022   0.00000   0.00008   0.00000  -0.00001   0.00000  -0.00002   0.00000  -0.00005   0.00000  -0.00000   0.00000   0.00003   0.00000  -0.00000   0.00000  -0.00024   0.00000  -0.00002   0.00000  -0.00001   0.00000  -0.00024
-24.54090   0.00000  -0.00007   0.00000  -0.00024   0.00000  -0.00052   0.00000   0.00022   0.00000   0.00008   0.00000  -0.00001   0.00000  -0.00002   0.00000  -0.00005   0.00000  -0.00000   0.00000   0.00003   0.00000  -0.00000   0.00000  -0.00024   0.00000  -0.00002   0.00000  -0.00001   0.00000  -0.00024   0.00000  -0.00007   0.00000  -0.00024   0.00000  -0.00052   0.00000   0.00022   0.00000   0.00008   0.00000  -0.00001   0.00000  -0.00002   0.00000  -0.00005   0.00000  -0.00000   0.00000   0.00003   0.00000  -0.00000   0.00000  -0.00024   0.00000  -0.00002   0.00000  -0.00001   0.00000  -0.00024
-24.49082   0.00000  -0.00007   0.00000  -0.00024   0.00000  -0.00052   0.00000   0.00022   0.00000   0.00008   0.00000  -0.00001   0.00000  -0.00002   0.00000  -0.00005   0.00000  -0.00000   0.00000   0.00003   0.00000  -0.00000   0.00000  -0.00024   0.00000  -0.00002   0.00000  -0.00001   0.00000  -0.00024   0.00000  -0.00007   0.00000  -0.00024   0.00000  -0.00052   0.00000   0.00022   0.00000   0.00008   0.00000  -0.00001   0.00000  -0.00002   0.00000  -0.00005   0.00000  -0.00000   0.00000   0.00003   0.00000  -0.00000   0.00000  -0.00024   0.00000  -0.00002   0.00000  -0.00001   0.00000  -0.00024
-24.44073   0.00000  -0.00007   0.00000  -0.00024   0.00000  -0.00052   0.00000   0.00022   0.00000   0.00008   0.00000  -0.00001   0.00000  -0.00002   0.00000  -0.00005   0.00000  -0.00000   0.00000   0.00003   0.00000  -0.00000   0.00000  -0.00024   0.00000  -0.00002   0.00000  -0.00001   0.00000  -0.00024   0.00000  -0.00007   0.00000  -0.00024   0.00000  -0.00052   0.00000   0.00022   0.00000   0.00008   0.00000  -0.00001   0.00000  -0.00002   0.00000  -0.00005   0.00000  -0.00000   0.00000   0.00003   0.00000  -0.00000   0.00000  -0.00024   0.00000  -0.00002   0.00000  -0.00001   0.00000  -0.00024
-24.39065   0.00000  -0.00007   0.00000  -0.00024   0.00000  -0.00052   0.00000   0.00022   0.00000   0.00008   0.00000  -0.00001   0.00000  -0.00002   0.00000  -0.00005   0.00000  -0.00000   0.00000   0.00003   0.00000  -0.00000   0.00000  -0.00024   0.00000  -0.00002   0.00000  -0.00001   0.00000  -0.00024   0.00000  -0.00007   0.00000  -0.00024   0.00000  -0.00052   0.00000   0.00022   0.00000   0.00008   0.00000  -0.00001   0.00000  -0.00002   0.00000  -0.00005   0.00000  -0.00000   0.00000   0.00003   0.00000  -0.00000   0.00000  -0.00024   0.00000  -0.00002   0.00000  -0.00001   0.00000  -0.00024
-24.34057   0.00000  -0.00007   0.00000  -0.00024   0.00000  -0.00052   0.00000   0.00022   0.00000   0.00008   0.00000  -0.00001   0.00000  -0.00002   0.00000  -0.00005   0.00000  -0.00000   0.00000   0.00003   0.00000  -0.00000   0.00000  -0.00024   0.00000  -0.00002   0.00000  -0.00001   0.00000  -0.00024   0.00000  -0.00007   0.00000  -0.00024   0.00000  -0.00052   0.00000   0.00022   0.00000   0.00008   0.00000  -0.00001   0.00000  -0.00002   0.00000  -0.00005   0.00000  -0.00000   0.00000   0.00003   0.00000  -0.00000   0.00000  -0.00024   0.00000  -0.00002   0.00000  -0.00001   0.00000  -0.00024
-24.29048   0.00000  -0.00007   0.00000  -0.00024   0.00000  -0.00052   0.00000   0.00022   0.00000   0.00008   0.00000  -0.00001   0.00000  -0.00002   0.00000  -0.00005   0.00000  -0.00000   0.00000   0.00003   0.00000  -0.00000   0.00000  -0.00024   0.00000  -0.00002   0.00000  -0.00001   0.00000  -0.00024   0.00000  -0.00007   0.00000  -0.00024   0.00000  -0.00052   0.00000   0.00022   0.00000   0.00008   0.00000  -0.00001   0.00000  -0.00002   0.00000  -0.00005   0.00000  -0.00000   0.00000   0.00003   0.00000  -0.00000   0.00000  -0.00024   0.00000  -0.00002   0.00000  -0.00001   0.00000  -0.00024
-24.24040   0.00000  -0.00007   0.00000  -0.00024   0.00000  -0.00052   0.00000   0.00022   0.00000   0.00008   0.00000  -0.00001   0.00000  -0.00002   0.00000  -0.00005   0.00000  -0.00000   0.00000   0.00003   0.00000  -0.00000   0.00000  -0.00024   0.00000  -0.00002   0.00000  -0.00001   0.00000  -0.00024   0.00000  -0.00007   0.00000  -0.00024   0.00000  -0.00052   0.00000   0.00022   0.00000   0.00008   0.00000  -0.00001   0.00000  -0.00002   0.00000  -0.00005   0.00000  -0.00000   0.00000   0.00003   0.00000  -0.00000   0.00000  -0.00024   0.00000  -0.00002   0.00000  -0.00001   0.00000  -0.00024
-24.19032   0.00000  -0.00007   0.00000  -0.00024   0.00000  -0.00052   0.00000   0.00022   0.00000   0.00008   0.00000  -0.00001   0.00000  -0.00002   0.00000  -0.00005   0.00000  -0.00000   0.00000   0.00003   0.00000  -0.00000   0.00000  -0.00024   0.00000  -0.00002   0.00000  -0.00001   0.00000  -0.00024   0.00000  -0.00007   0.00000  -0.00024   0.00000  -0.00052   0.00000   0.00022   0.00000   0.00008   0.00000  -0.00001   0.00000  -0.00002   0.00000  -0.00005   0.00000  -0.00000   0.00000   0.00003   0.00000  -0.00000   0.00000  -0.00024   0.00000  -0.00002   0.00000  -0.00001   0.00000  -0.00024
-24.14023   0.00000  -0.00007   0.00000  -0.00024   0.00000  -0.00052   0.00000   0.00022   0.00000   0.00008   0.00000  -0.00001   0.00000  -0.00002   0.00000  -0.00005   0.00000  -0.00000   0.00000   0.00003   0.00000  -0.00000   0.00000  -0.00024   0.00000  -0.00002   0.00000  -0.00001   0.00000  -0.00024   0.00000  -0.00007   0.00000  -0.00024   0.00000  -0.00052   0.00000   0.00022   0.00000   0.00008   0.00000  -0.00001   0.00000  -0.00002   0.00000  -0.00005   0.00000  -0.00000   0.00000   0.00003   0.00000  -0.00000   0.00000  -0.00024   0.00000  -0.00002   0.00000  -0.00001   0.00000  -0.00024
-24.09015   0.00000  -0.00007   0.00000  -0.00024   0.00000  -0.00052   0.00000   0.00022   0.00000   0.00008   0.00000  -0.00001   0.00000  -0.00002   0.00000  -0.00005   0.00000  -0.00000   0.00000   0.00003   0.00000  -0.00000   0.00000  -0.00024   0.00000  -0.00002   0.00000  -0.00001   0.00000  -0.00024   0.00000  -0.00007   0.00000  -0.00024   0.00000  -0.00052   0.00000   0.00022   0.00000   0.00008   0.00000  -0.00001   0.00000  -0.00002   0.00000  -0.00005   0.00000  -0.00000   0.00000   0.00003   0.00000  -0.00000   0.00000  -0.00024   0.00000  -0.00002   0.00000  -0.00001   0.00000  -0.00024
-24.04007   0.00000  -0.00007   0.00000  -0.00024   0.00000  -0.00052   0.00000   0.00022   0.00000   0.00008   0.00000  -0.00001   0.00000  -0.00002   0.00000  -0.00005   0.00000  -0.00000   0.00000   0.00003   0.00000  -0.00000   0.00000  -0.00024   0.00000  -0.00002   0.00000  -0.00001   0.00000  -0.00024   0.00000  -0.00007   0.00000  -0.00024   0.00000  -0.00052   0.00000   0.00022   0.00000   0.00008   0.00000  -0.00001   0.00000  -0.00002   0.00000  -0.00005   0.00000  -0.00000   0.00000   0.00003   0.00000  -0.00000   0.00000  -0.00024   0.00000  -0.00002   0.00000  -0.00001   0.00000  -0.00024
-23.98998   0.00000  -0.00007   0.00000  -0.00024   0.00000  -0.00052   0.00000   0.00022   0.00000   0.00008   0.00000  -0.00001   0.00000  -0.00002   0.00000  -0.00005   0.00000  -0.00000   0.00000   0.00003   0.00000  -0.00000   0.00000  -0.00024   0.00000  -0.00002   0.00000  -0.00001   0.00000  -0.00024   0.00000  -0.00007   0.00000  -0.00024   0.00000  -0.00052   0.00000   0.00022   0.00000   0.00008   0.00000  -0.00001   0.00000  -0.00002   0.00000  -0.00005   0.00000  -0.00000   0.00000   0.00003   0.00000  -0.00000   0.00000  -0.00024   0.00000  -0.00002   0.00000  -0.00001   0.00000  -0.00024
-23.93990   0.00000  -0.00007   0.00000  -0.00024   0.00000  -0.00052   0.00000   0.00022   0.00000   0.00008   0.00000  -0.00001   0.00000  -0.00002   0.00000  -0.00005   0.00000  -0.00000   0.00000   0.00003   0.00000  -0.00000   0.00000  -0.00024   0.00000  -0.00002   0.00000  -0.00001   0.00000  -0.00024   0.00000  -0.00007   0.00000  -0.00024   0.00000  -0.00052   0.00000   0.00022   0.00000   0.00008   0.00000  -0.00001   0.00000  -0.00002   0.00000  -0.00005   0.00000  -0.00000   0.00000   0.00003   0.00000  -0.00000   0.00000  -0.00024   0.00000  -0.00002   0.00000  -0.00001   0.00000  -0.00024
-23.88982   0.00000  -0.00007   0.00000  -0.00024   0.00000  -0.00052   0.00000   0.00022   0.00000   0.00008   0.00000  -0.00001   0.00000  -0.00002   0.00000  -0.00005   0.00000  -0.00000   0.00000   0.00003   0.00000  -0.00000   0.00000  -0.00024   0.00000  -0.00002   0.00000  -0.00001   0.00000  -0.00024   0.00000  -0.00007   0.00000  -0.00024   0.00000  -0.00052   0.00000   0.00022   0.00000   0.00008   0.00000  -0.00001   0.00000  -0.00002   0.00000  -0.00005   0.00000  -0.00000   0.00000   0.00003   0.00000  -0.00000   0.00000  -0.00024   0.00000  -0.00002   0.00000  -0.00001   0.00000  -0.00024
-23.83973   0.00000  -0.00007   0.00000  -0.00024   0.00000  -0.00052   0.00000   0.00022   0.00000   0.00008   0.00000  -0.00001   0.00000  -0.00002   0.00000  -0.00005   0.00000  -0.00000   0.00000   0.00003   0.00000  -0.00000   0.00000  -0.00024   0.00000  -0.00002   0.00000  -0.00001   0.00000  -0.00024   0.00000  -0.00007   0.00000  -0.00024   0.00000  -0.00052   0.00000   0.00022   0.00000   0.00008   0.00000  -0.00001   0.00000  -0.00002   0.00000  -0.00005   0.00000  -0.00000   0.00000   0.00003   0.00000  -0.00000   0.00000  -0.00024   0.00000  -0.00002   0.00000  -0.00001   0.00000  -0.00024
-23.78965   0.00000  -0.00007   0.00000  -0.00024   0.00000  -0.00052   0.00000   0.00022   0.00000   0.00008   0.00000  -0.00001   0.00000  -0.00002   0.00000  -0.00005   0.00000  -0.00000   0.00000   0.00003   0.00000  -0.00000   0.00000  -0.00024   0.00000  -0.00002   0.00000  -0.00001   0.00000  -0.00024   0.00000  -0.00007   0.00000  -0.00024   0.00000  -0.00052   0.00000   0.00022   0.00000   0.00008   0.00000  -0.00001   0.00000  -0.00002   0.00000  -0.00005   0.00000  -0.00000   0.00000   0.00003   0.00000  -0.00000   0.00000  -0.00024   0.00000  -0.00002   0.00000  -0.00001   0.00000  -0.00024
-23.73957   0.00000  -0.00007   0.00000  -0.00024   0.00000  -0.00052   0.00000   0.00022   0.00000   0.00008   0.00000  -0.00001   0.00000  -0.00002   0.00000  -0.00005   0.00000  -0.00000   0.00000   0.00003   0.00000  -0.00000   0.00000  -0.00024   0.00000  -0.00002   0.00000  -0.00001   0.00000  -0.00024   0.00000  -0.00007   0.00000  -0.00024   0.00000  -0.00052   0.00000   0.00022   0.00000   0.00008   0.00000  -0.00001   0.00000  -0.00002   0.00000  -0.00005   0.00000  -0.00000   0.00000   0.00003   0.00000  -0.00000   0.00000  -0.00024   0.00000  -0.00002   0.00000  -0.00001   0.00000  -0.00024
-23.68948   0.00000  -0.00007   0.00000  -0.00024   0.00000  -0.00052   0.00000   0.00022   0.00000   0.00008   0.00000  -0.00001   0.00000  -0.00002   0.00000  -0.00005   0.00000  -0.00000   0.00000   0.00003   0.00000  -0.00000   0.00000  -0.00024   0.00000  -0.00002   0.00000  -0.00001   0.00000  -0.00024   0.00000  -0.00007   0.00000  -0.00024   0.00000  -0.00052   0.00000   0.00022   0.00000   0.00008   0.00000  -0.00001   0.00000  -0.00002   0.00000  -0.00005   0.00000  -0.00000   0.00000   0.00003   0.00000  -0.00000   0.00000  -0.00024   0.00000  -0.00002   0.00000  -0.00001   0.00000  -0.00024
-23.63940   0.00000  -0.00007   0.00000  -0.00024   0.00000  -0.00052   0.00000   0.00022   0.00000   0.00008   0.00000  -0.00001   0.00000  -0.00002   0.00000  -0.00005   0.00000  -0.00000   0.00000   0.00003   0.00000  -0.00000   0.00000  -0.00024   0.00000  -0.00002   0.00000  -0.00001   0.00000  -0.00024   0.00000  -0.00007   0.00000  -0.00024   0.00000  -0.00052   0.00000   0.00022   0.00000   0.00008   0.00000  -0.00001   0.00000  -0.00002   0.00000  -0.00005   0.00000  -0.00000   0.00000   0.00003   0.00000  -0.00000   0.00000  -0.00024   0.00000  -0.00002   0.00000  -0.00001   0.00000  -0.00024
-23.58932   0.00000  -0.00007   0.00000  -0.00024   0.00000  -0.00052   0.00000   0.00022   0.00000   0.00008   0.00000  -0.00001   0.00000  -0.00002   0.00000  -0.00005   0.00000  -0.00000   0.00000   0.00003   0.00000  -0.00000   0.00000  -0.00024   0.00000  -0.00002   0.00000  -0.00001   0.00000  -0.00024   0.00000  -0.00007   0.00000  -0.00024   0.00000  -0.00052   0.00000   0.00022   0.00000   0.00008   0.00000  -0.00001   0.00000  -0.00002   0.00000  -0.00005   0.00000  -0.00000   0.00000   0.00003   0.00000  -0.00000   0.00000  -0.00024   0.00000  -0.00002   0.00000  -0.00001   0.00000  -0.00024
-23.53923   0.00000  -0.00007   0.00000  -0.00024   0.00000  -0.00052   0.00000   0.00022   0.00000   0.00008   0.00000  -0.00001   0.00000  -0.00002   0.00000  -0.00005   0.00000  -0.00000   0.00000   0.00003   0.00000  -0.00000   0.00000  -0.00024   0.00000  -0.00002   0.00000  -0.00001   0.00000  -0.00024   0.00000  -0.00007   0.00000  -0.00024   0.00000  -0.00052   0.00000   0.00022   0.00000   0.00008   0.00000  -0.00001   0.00000  -0.00002   0.00000  -0.00005   0.00000  -0.00000   0.00000   0.00003   0.00000  -0.00000   0.00000  -0.00024   0.00000  -0.00002   0.00000  -0.00001   0.00000  -0.00024
-23.48915   0.00000  -0.00007   0.00000  -0.00024   0.00000  -0.00052   0.00000   0.00022   0.00000   0.00008   0.00000  -0.00001   0.00000  -0.00002   0.00000  -0.00005   0.00000  -0.00000   0.00000   0.00003   0.00000  -0.00000   0.00000  -0.00024   0.00000  -0.00002   0.00000  -0.00001   0.00000  -0.00024   0.00000  -0.00007   0.00000  -0.00024   0.00000  -0.00052   0.00000   0.00022   0.00000   0.00008   0.00000  -0.00001   0.00000  -0.00002   0.00000  -0.00005   0.00000  -0.00000   0.00000   0.00003   0.00000  -0.00000   0.00000  -0.00024   0.00000  -0.00002   0.00000  -0.00001   0.00000  -0.00024
-23.43907   0.00000  -0.00007   0.00000  -0.00024   0.00000  -0.00052   0.00000   0.00022   0.00000   0.00008   0.00000  -0.00001   0.00000  -0.00002   0.00000  -0.00005   0.00000  -0.00000   0.00000   0.00003   0.00000  -0.00000   0.00000  -0.00024   0.00000  -0.00002   0.00000  -0.00001   0.00000  -0.00024   0.00000  -0.00007   0.00000  -0.00024   0.00000  -0.00052   0.00000   0.00022   0.00000   0.00008   0.00000  -0.00001   0.00000  -0.00002   0.00000  -0.00005   0.00000  -0.00000   0.00000   0.00003   0.00000  -0.00000   0.00000  -0.00024   0.00000  -0.00002   0.00000  -0.00001   0.00000  -0.00024
-23.38898   0.00000  -0.00007   0.00000  -0.00024   0.00000  -0.00052   0.00000   0.00022   0.00000   0.00008   0.00000  -0.00001   0.00000  -0.00002   0.00000  -0.00005   0.00000  -0.00000   0.00000   0.00003   0.00000  -0.00000   0.00000  -0.00024   0.00000  -0.00002   0.00000  -0.00001   0.00000  -0.00024   0.00000  -0.00007   0.00000  -0.00024   0.00000  -0.00052   0.00000   0.00022   0.00000   0.00008   0.00000  -0.00001   0.00000  -0.00002   0.00000  -0.00005   0.00000  -0.00000   0.00000   0.00003   0.00000  -0.00000   0.00000  -0.00024   0.00000  -0.00002   0.00000  -0.00001   0.00000  -0.00024
-23.33890   0.00000  -0.00007   0.00000  -0.00024   0.00000  -0.00052   0.00000   0.00022   0.00000   0.00008   0.00000  -0.00001   0.00000  -0.00002   0.00000  -0.00005   0.00000  -0.00000   0.00000   0.00003   0.00000  -0.00000   0.00000  -0.00024   0.00000  -0.00002   0.00000  -0.00001   0.00000  -0.00024   0.00000  -0.00007   0.00000  -0.00024   0.00000  -0.00052   0.00000   0.00022   0.00000   0.00008   0.00000  -0.00001   0.00000  -0.00002   0.00000  -0.00005   0.00000  -0.00000   0.00000   0.00003   0.00000  -0.00000   0.00000  -0.00024   0.00000  -0.00002   0.00000  -0.00001   0.00000  -0.00024
-23.28881   0.00000  -0.00007   0.00000  -0.00024   0.00000  -0.00052   0.00000   0.00022   0.00000   0.00008   0.00000  -0.00001   0.00000  -0.00002   0.00000  -0.00005   0.00000  -0.00000   0.00000   0.00003   0.00000  -0.00000   0.00000  -0.00024   0.00000  -0.00002   0.00000  -0.00001   0.00000  -0.00024   0.00000  -0.00007   0.00000  -0.00024   0.00000  -0.00052   0.00000   0.00022   0.00000   0.00008   0.00000  -0.00001   0.00000  -0.00002   0.00000  -0.00005   0.00000  -0.00000   0.00000   0.00003   0.00000  -0.00000   0.00000  -0.00024   0.00000  -0.00002   0.00000  -0.00001   0.00000  -0.00024
-23.23873   0.00000  -0.00007   0.00000  -0.00024   0.00000  -0.00052   0.00000   0.00022   0.00000   0.00008   0.00000  -0.00001   0.00000  -0.00002   0.00000  -0.00005   0.00000  -0.00000   0.00000   0.00003   0.00000  -0.00000   0.00000  -0.00024   0.00000  -0.00002   0.00000  -0.00001   0.00000  -0.00024   0.00000  -0.00007   0.00000  -0.00024   0.00000  -0.00052   0.00000   0.00022   0.00000   0.00008   0.00000  -0.00001   0.00000  -0.00002   0.00000  -0.00005   0.00000  -0.00000   0.00000   0.00003   0.00000  -0.00000   0.00000  -0.00024   0.00000  -0.00002   0.00000  -0.00001   0.00000  -0.00024
-23.18865   0.00000  -0.00007   0.00000  -0.00024   0.00000  -0.00052   0.00000   0.00022   0.00000   0.00008   0.00000  -0.00001   0.00000  -0.00002   0.00000  -0.00005   0.00000  -0.00000   0.00000   0.00003   0.00000  -0.00000   0.00000  -0.00024   0.00000  -0.00002   0.00000  -0.00001   0.00000  -0.00024   0.00000  -0.00007   0.00000  -0.00024   0.00000  -0.00052   0.00000   0.00022   0.00000   0.00008   0.00000  -0.00001   0.00000  -0.00002   0.00000  -0.00005   0.00000  -0.00000   0.00000   0.00003   0.00000  -0.00000   0.00000  -0.00024   0.00000  -0.00002   0.00000  -0.00001   0.00000  -0.00024
-23.13856   0.00000  -0.00007   0.00000  -0.00024   0.00000  -0.00052   0.00000   0.00022   0.00000   0.00008   0.00000  -0.00001   0.00000  -0.00002   0.00000  -0.00005   0.00000  -0.00000   0.00000   0.00003   0.00000  -0.00000   0.00000  -0.00024   0.00000  -0.00002   0.00000  -0.00001   0.00000  -0.00024   0.00000  -0.00007   0.00000  -0.00024   0.00000  -0.00052   0.00000   0.00022   0.00000   0.00008   0.00000  -0.00001   0.00000  -0.00002   0.00000  -0.00005   0.00000  -0.00000   0.00000   0.00003   0.00000  -0.00000   0.00000  -0.00024   0.00000  -0.00002   0.00000  -0.00001   0.00000  -0.00024
-23.08848   0.00000  -0.00007   0.00000  -0.00024   0.00000  -0.00052   0.00000   0.00022   0.00000   0.00008   0.00000  -0.00001   0.00000  -0.00002   0.00000  -0.00005   0.00000  -0.00000   0.00000   0.00003   0.00000  -0.00000   0.00000  -0.00024   0.00000  -0.00002   0.00000  -0.00001   0.00000  -0.00024   0.00000  -0.00007   0.00000  -0.00024   0.00000  -0.00052   0.00000   0.00022   0.00000   0.00008   0.00000  -0.00001   0.00000  -0.00002   0.00000  -0.00005   0.00000  -0.00000   0.00000   0.00003   0.00000  -0.00000   0.00000  -0.00024   0.00000  -0.00002   0.00000  -0.00001   0.00000  -0.00024
-23.03840   0.00000  -0.00007   0.00000  -0.00024   0.00000  -0.00052   0.00000   0.00022   0.00000   0.00008   0.00000  -0.00001   0.00000  -0.00002   0.00000  -0.00005   0.00000  -0.00000   0.00000   0.00003   0.00000  -0.00000   0.00000  -0.00024   0.00000  -0.00002   0.00000  -0.00001   0.00000  -0.00024   0.00000  -0.00007   0.00000  -0.00024   0.00000  -0.00052   0.00000   0.00022   0.00000   0.00008   0.00000  -0.00001   0.00000  -0.00002   0.00000  -0.00005   0.00000  -0.00000   0.00000   0.00003   0.00000  -0.00000   0.00000  -0.00024   0.00000  -0.00002   0.00000  -0.00001   0.00000  -0.00024
-22.98831   0.00000  -0.00007   0.00000  -0.00024   0.00000  -0.00052   0.00000   0.00022   0.00000   0.00008   0.00000  -0.00001   0.00000  -0.00002   0.00000  -0.00005   0.00000  -0.00000   0.00000   0.00003   0.00000  -0.00000   0.00000  -0.00024   0.00000  -0.00002   0.00000  -0.00001   0.00000  -0.00024   0.00000  -0.00007   0.00000  -0.00024   0.00000  -0.00052   0.00000   0.00022   0.00000   0.00008   0.00000  -0.00001   0.00000  -0.00002   0.00000  -0.00005   0.00000  -0.00000   0.00000   0.00003   0.00000  -0.00000   0.00000  -0.00024   0.00000  -0.00002   0.00000  -0.00001   0.00000  -0.00024
-22.93823   0.00000  -0.00007   0.00000  -0.00024   0.00000  -0.00052   0.00000   0.00022   0.00000   0.00008   0.00000  -0.00001   0.00000  -0.00002   0.00000  -0.00005   0.00000  -0.00000   0.00000   0.00003   0.00000  -0.00000   0.00000  -0.00024   0.00000  -0.00002   0.00000  -0.00001   0.00000  -0.00024   0.00000  -0.00007   0.00000  -0.00024   0.00000  -0.00052   0.00000   0.00022   0.00000   0.00008   0.00000  -0.00001   0.00000  -0.00002   0.00000  -0.00005   0.00000  -0.00000   0.00000   0.00003   0.00000  -0.00000   0.00000  -0.00024   0.00000  -0.00002   0.00000  -0.00001   0.00000  -0.00024
-22.88815   0.00000  -0.00007   0.00000  -0.00024   0.00000  -0.00052   0.00000   0.00022   0.00000   0.00008   0.00000  -0.00001   0.00000  -0.00002   0.00000  -0.00005   0.00000  -0.00000   0.00000   0.00003   0.00000  -0.00000   0.00000  -0.00024   0.00000  -0.00002   0.00000  -0.00001   0.00000  -0.00024   0.00000  -0.00007   0.00000  -0.00024   0.00000  -0.00052   0.00000   0.00022   0.00000   0.00008   0.00000  -0.00001   0.00000  -0.00002   0.00000  -0.00005   0.00000  -0.00000   0.00000   0.00003   0.00000  -0.00000   0.00000  -0.00024   0.00000  -0.00002   0.00000  -0.00001   0.00000  -0.00024
-22.83806   0.00000  -0.00007   0.00000  -0.00024   0.00000  -0.00052   0.00000   0.00022   0.00000   0.00008   0.00000  -0.00001   0.00000  -0.00002   0.00000  -0.00005   0.00000  -0.00000   0.00000   0.00003   0.00000  -0.00000   0.00000  -0.00024   0.00000  -0.00002   0.00000  -0.00001   0.00000  -0.00024   0.00000  -0.00007   0.00000  -0.00024   0.00000  -0.00052   0.00000   0.00022   0.00000   0.00008   0.00000  -0.00001   0.00000  -0.00002   0.00000  -0.00005   0.00000  -0.00000   0.00000   0.00003   0.00000  -0.00000   0.00000  -0.00024   0.00000  -0.00002   0.00000  -0.00001   0.00000  -0.00024
-22.78798   0.00000  -0.00007   0.00000  -0.00024   0.00000  -0.00052   0.00000   0.00022   0.00000   0.00008   0.00000  -0.00001   0.00000  -0.00002   0.00000  -0.00005   0.00000  -0.00000   0.00000   0.00003   0.00000  -0.00000   0.00000  -0.00024   0.00000  -0.00002   0.00000  -0.00001   0.00000  -0.00024   0.00000  -0.00007   0.00000  -0.00024   0.00000  -0.00052   0.00000   0.00022   0.00000   0.00008   0.00000  -0.00001   0.00000  -0.00002   0.00000  -0.00005   0.00000  -0.00000   0.00000   0.00003   0.00000  -0.00000   0.00000  -0.00024   0.00000  -0.00002   0.00000  -0.00001   0.00000  -0.00024
-22.73790   0.00000  -0.00007   0.00000  -0.00024   0.00000  -0.00052   0.00000   0.00022   0.00000   0.00008   0.00000  -0.00001   0.00000  -0.00002   0.00000  -0.00005   0.00000  -0.00000   0.00000   0.00003   0.00000  -0.00000   0.00000  -0.00024   0.00000  -0.00002   0.00000  -0.00001   0.00000  -0.00024   0.00000  -0.00007   0.00000  -0.00024   0.00000  -0.00052   0.00000   0.00022   0.00000   0.00008   0.00000  -0.00001   0.00000  -0.00002   0.00000  -0.00005   0.00000  -0.00000   0.00000   0.00003   0.00000  -0.00000   0.00000  -0.00024   0.00000  -0.00002   0.00000  -0.00001   0.00000  -0.00024