  16   16    1    1
  1.9412912e+02   6.5029326e-10   5.6273245e-10   5.3049278e-10   5.0000000e-16
            1.000000e-04
  CAR
 DOS and projected DOS file by LOBSTER. Energy is shifted such that the Fermi level lies at 0 eV. 
     12.42949609     -17.62058738   601       2.41280160       1.00000000
-20.03339   0.00000   0.00000
-19.98331   0.00000   0.00000
-19.93322   0.00000   0.00000
-19.88314   0.00000   0.00000
-19.83306   0.00000   0.00000
-19.78297   0.00000   0.00000
-19.73289   0.00000   0.00000
-19.68280   0.00000   0.00000
-19.63272   0.00000   0.00000
-19.58264   0.00000   0.00000
-19.53255   0.00000   0.00000
-19.48247   0.00000   0.00000
-19.43239   0.00000   0.00000
-19.38230   0.00000   0.00000
-19.33222   0.00000   0.00000
-19.28214   0.00000   0.00000
-19.23205   0.00000   0.00000
-19.18197   0.00000   0.00000
-19.13189   0.00000   0.00000
-19.08180   0.00000   0.00000
-19.03172   0.00000   0.00000
-18.98164   0.00000   0.00000
-18.93155   0.00000   0.00000
-18.88147   0.00000   0.00000
-18.83139   0.00000   0.00000
-18.78130   0.00000   0.00000
-18.73122   0.00000   0.00000
-18.68114   0.00000   0.00000
-18.63105   0.00000   0.00000
-18.58097   0.00000   0.00000
-18.53088   0.00000   0.00000
-18.48080   0.00000   0.00000
-18.43072   0.00000   0.00000
-18.38063   0.00000   0.00000
-18.33055   0.00000   0.00000
-18.28047   0.00000   0.00000
-18.23038   0.00000   0.00000
-18.18030   0.00000   0.00000
-18.13022   0.00000   0.00000
-18.08013   0.00000   0.00000
-18.03005   0.00000   0.00000
-17.97997   0.00000   0.00000
-17.92988   0.00000   0.00000
-17.87980   0.00000   0.00000
-17.82972   0.00000   0.00000
-17.77963   0.00000   0.00000
-17.72955   0.00000   0.00000
-17.67947   0.00000   0.00000
-17.62938   0.00000   0.00000
-17.57930   0.00000   0.00000
-17.52922   0.00000   0.00000
-17.47913   0.00000   0.00000
-17.42905   0.00000   0.00000
-17.37896   0.00000   0.00000
-17.32888   0.00000   0.00000
-17.27880   0.00000   0.00000
-17.22871   0.00000   0.00000
-17.17863   0.00000   0.00000
-17.12855   0.00000   0.00000
-17.07846   0.00000   0.00000
-17.02838   0.00000   0.00000
-16.97830   0.00000   0.00000
-16.92821   0.00000   0.00000
-16.87813   0.00000   0.00000
-16.82805   0.00000   0.00000
-16.77796   0.00000   0.00000
-16.72788   0.00000   0.00000
-16.67780   0.00000   0.00000
-16.62771   0.00000   0.00000
-16.57763   0.00000   0.00000
-16.52755   0.00000   0.00000
-16.47746   0.00000   0.00000
-16.42738   0.00000   0.00000
-16.37730   0.00000   0.00000
-16.32721   0.00000   0.00000
-16.27713   0.00000   0.00000
-16.22705   0.00000   0.00000
-16.17696   0.00000   0.00000
-16.12688   0.00000   0.00000
-16.07679   0.00000   0.00000
-16.02671   0.00000   0.00000
-15.97663   0.00000   0.00000
-15.92654   0.00000   0.00000
-15.87646   0.00000   0.00000
-15.82638   0.00000   0.00000
-15.77629   0.00000   0.00000
-15.72621   0.00000   0.00000
-15.67613   0.00000   0.00000
-15.62604   0.00000   0.00000
-15.57596   0.01120   0.00056
-15.52588   0.21347   0.01125
-15.47579   1.06652   0.06467
-15.42571   2.02508   0.16609
-15.37563   1.82123   0.25730
-15.32554   0.67334   0.29103
-15.27546   2.37999   0.41023
-15.22538   3.89900   0.60550
-15.17529   3.07408   0.75946
-15.12521   1.72494   0.84585
-15.07513   4.29679   1.06105
-15.02504   4.69460   1.29617
-14.97496   3.08369   1.45061
-14.92487   7.08804   1.80561
-14.87479   5.16867   2.06447
-14.82471   5.34127   2.33198
-14.77462   6.10937   2.63796
-14.72454   7.35270   3.00621
-14.67446   8.56696   3.43527
-14.62437   8.91786   3.88191
-14.57429  11.64348   4.46506
-14.52421  12.97806   5.11504
-14.47412  13.72563   5.80247
-14.42404  21.77777   6.89318
-14.37396  22.29824   8.00995
-14.32387  19.75185   8.99919
-14.27379  27.21521  10.36222
-14.22371  23.34844  11.53159
-14.17362  31.97603  13.13306
-14.12354  45.37841  15.40577
-14.07346  11.86433  15.99998
-14.02337   0.00036  16.00000
-13.97329   0.00000  16.00000
-13.92321   0.00000  16.00000
-13.87312   0.00000  16.00000
-13.82304   0.00000  16.00000
-13.77295   0.00000  16.00000
-13.72287   0.00000  16.00000
-13.67279   0.00000  16.00000
-13.62270   0.00000  16.00000
-13.57262   0.00000  16.00000
-13.52254   0.00000  16.00000
-13.47245   0.00000  16.00000
-13.42237   0.00000  16.00000
-13.37229   0.00000  16.00000
-13.32220   0.00000  16.00000
-13.27212   0.00000  16.00000
-13.22204   0.00000  16.00000
-13.17195   0.00000  16.00000
-13.12187   0.00000  16.00000
-13.07179   0.00000  16.00000
-13.02170   0.00000  16.00000
-12.97162   0.00000  16.00000
-12.92154   0.00000  16.00000
-12.87145   0.00000  16.00000
-12.82137   0.00000  16.00000
-12.77129   0.00000  16.00000
-12.72120   0.00000  16.00000
-12.67112   0.00000  16.00000
-12.62104   0.00000  16.00000
-12.57095   0.00000  16.00000
-12.52087   0.00000  16.00000
-12.47078   0.00000  16.00000
-12.42070   0.00000  16.00000
-12.37062   0.00000  16.00000
-12.32053   0.00000  16.00000
-12.27045   0.00000  16.00000
-12.22037   0.00000  16.00000
-12.17028   0.00000  16.00000
-12.12020   0.00000  16.00000
-12.07012   0.00000  16.00000
-12.02003   0.00000  16.00000
-11.96995   0.00000  16.00000
-11.91987   0.00000  16.00000
-11.86978   0.00000  16.00000
-11.81970   0.00000  16.00000
-11.76962   0.00000  16.00000
-11.71953   0.00000  16.00000
-11.66945   0.00000  16.00000
-11.61937   0.00000  16.00000
-11.56928   0.00000  16.00000
-11.51920   0.00000  16.00000
-11.46912   0.00000  16.00000
-11.41903   0.00000  16.00000
-11.36895   0.00000  16.00000
-11.31886   0.00000  16.00000
-11.26878   0.00000  16.00000
-11.21870   0.00000  16.00000
-11.16861   0.00000  16.00000
-11.11853   0.00000  16.00000
-11.06845   0.00000  16.00000
-11.01836   0.00000  16.00000
-10.96828   0.00000  16.00000
-10.91820   0.00000  16.00000
-10.86811   0.00000  16.00000
-10.81803   0.00000  16.00000
-10.76795   0.00000  16.00000
-10.71786   0.00000  16.00000
-10.66778   0.00000  16.00000
-10.61770   0.00000  16.00000
-10.56761   0.00000  16.00000
-10.51753   0.00000  16.00000
-10.46745   0.00000  16.00000
-10.41736   0.00000  16.00000
-10.36728   0.00000  16.00000
-10.31720   0.00000  16.00000
-10.26711   0.00000  16.00000
-10.21703   0.00000  16.00000
-10.16694   0.00000  16.00000
-10.11686   0.00000  16.00000
-10.06678   0.00000  16.00000
-10.01669   0.00000  16.00000
 -9.96661   0.00000  16.00000
 -9.91653   0.00000  16.00000
 -9.86644   0.00000  16.00000
 -9.81636   0.00000  16.00000
 -9.76628   0.00000  16.00000
 -9.71619   0.00000  16.00000
 -9.66611   0.00000  16.00000
 -9.61603   0.00000  16.00000
 -9.56594   0.00000  16.00000
 -9.51586   0.00000  16.00000
 -9.46578   0.00000  16.00000
 -9.41569   0.00000  16.00000
 -9.36561   0.00000  16.00000
 -9.31553   0.00000  16.00000
 -9.26544   0.00000  16.00000
 -9.21536   0.00000  16.00000
 -9.16528   0.00000  16.00000
 -9.11519   0.00000  16.00000
 -9.06511   0.00000  16.00000
 -9.01503   0.00000  16.00000
 -8.96494   0.00000  16.00000
 -8.91486   0.00000  16.00000
 -8.86477   0.00000  16.00000
 -8.81469   0.00000  16.00000
 -8.76461   0.00000  16.00000
 -8.71452   0.00000  16.00000
 -8.66444   0.00000  16.00000
 -8.61436   0.00000  16.00000
 -8.56427   0.00000  16.00000
 -8.51419   0.00000  16.00000
 -8.46411   0.00000  16.00000
 -8.41402   0.00000  16.00000
 -8.36394   0.00000  16.00000
 -8.31386   0.00000  16.00000
 -8.26377   0.00000  16.00000
 -8.21369   0.00000  16.00000
 -8.16361   0.00000  16.00000
 -8.11352   0.00000  16.00000
 -8.06344   0.00000  16.00000
 -8.01336   0.00000  16.00000
 -7.96327   0.00000  16.00000
 -7.91319   0.00000  16.00000
 -7.86311   0.00000  16.00000
 -7.81302   0.00000  16.00000
 -7.76294   0.00000  16.00000
 -7.71285   0.00000  16.00000
 -7.66277   0.00000  16.00000
 -7.61269   0.00000  16.00000
 -7.56260   0.00000  16.00000
 -7.51252   0.00000  16.00000
 -7.46244   0.00000  16.00000
 -7.41235   0.00000  16.00000
 -7.36227   0.00000  16.00000
 -7.31219   0.00000  16.00000
 -7.26210   0.00000  16.00000
 -7.21202   0.00000  16.00000
 -7.16194   0.00000  16.00000
 -7.11185   0.00000  16.00000
 -7.06177   0.00000  16.00000
 -7.01169   0.00000  16.00000
 -6.96160   0.00000  16.00000
 -6.91152   0.00000  16.00000
 -6.86144   0.00000  16.00000
 -6.81135   0.00000  16.00000
 -6.76127   0.00000  16.00000
 -6.71119   0.00000  16.00000
 -6.66110   0.00000  16.00000
 -6.61102   0.00001  16.00000
 -6.56093   4.11966  16.20632
 -6.51085  22.63219  17.33982
 -6.46077  33.90975  19.03814
 -6.41068  37.29560  20.90603
 -6.36060  32.57375  22.53744
 -6.31052  36.29114  24.35503
 -6.26043  26.64487  25.68949
 -6.21035  31.36181  27.26020
 -6.16027  51.76392  29.85272
 -6.11018  43.68863  32.04080
 -6.06010  44.49800  34.26941
 -6.01002  64.74824  37.51223
 -5.95993  60.76421  40.55551
 -5.90985  52.30535  43.17515
 -5.85977  40.90005  45.22356
 -5.80968  34.22053  46.93745
 -5.75960  38.43320  48.86231
 -5.70952  42.33915  50.98281
 -5.65943  46.00117  53.28670
 -5.60935  35.20092  55.04969
 -5.55927  36.00433  56.85291
 -5.50918  49.27664  59.32085
 -5.45910  42.81558  61.46521
 -5.40902  48.15787  63.87712
 -5.35893  42.01879  65.98157
 -5.30885  65.29585  69.25181
 -5.25876  59.17946  72.21572
 -5.20868  59.20008  75.18067
 -5.15860  16.24842  75.99445
 -5.10851   0.10843  75.99988
 -5.05843   0.00119  75.99994
 -5.00835   0.91649  76.04584
 -4.95826   3.90104  76.24122
 -4.90818  17.82079  77.13374
 -4.85810  19.75974  78.12338
 -4.80801  18.25794  79.03780
 -4.75793  16.23646  79.85098
 -4.70785   8.22109  80.26272
 -4.65776  15.13533  81.02075
 -4.60768  14.62061  81.75300
 -4.55760  13.09155  82.40867
 -4.50751  13.66394  83.09301
 -4.45743   7.27406  83.45732
 -4.40735  11.30442  84.02348
 -4.35726  11.62921  84.60591
 -4.30718   6.43561  84.92823
 -4.25710   6.92671  85.27515
 -4.20701  11.50602  85.85141
 -4.15693  10.84915  86.39477
 -4.10684   7.51906  86.77135
 -4.05676   4.51957  86.99771
 -4.00668   8.87510  87.44220
 -3.95659   4.72999  87.67910
 -3.90651   3.60684  87.85974
 -3.85643   0.48786  87.88417
 -3.80634   3.04929  88.03689
 -3.75626   3.26054  88.20019
 -3.70618   3.41369  88.37116
 -3.65609   6.45927  88.69466
 -3.60601  10.48710  89.21989
 -3.55593   7.59511  89.60028
 -3.50584  13.18084  90.26043
 -3.45576   7.16523  90.61929
 -3.40568  14.05133  91.32303
 -3.35559   7.64117  91.70572
 -3.30551   5.74884  91.99364
 -3.25543   9.09898  92.44935
 -3.20534  12.50253  93.07552
 -3.15526   8.43170  93.49781
 -3.10518  13.82806  94.19037
 -3.05509   9.97361  94.68988
 -3.00501   8.76590  95.12891
 -2.95492  10.10055  95.63478
 -2.90484   8.49792  96.06038
 -2.85476   4.87268  96.30443
 -2.80467   7.20810  96.66543
 -2.75459   9.17899  97.12515
 -2.70451  11.02605  97.67737
 -2.65442   5.69498  97.96259
 -2.60434   6.42527  98.28439
 -2.55426  11.46324  98.85851
 -2.50417  11.25284  99.42209
 -2.45409  11.97765 100.02198
 -2.40401  12.41745 100.64389
 -2.35392   6.29136 100.95898
 -2.30384   9.91138 101.45538
 -2.25376  15.17144 102.21521
 -2.20367   9.09344 102.67064
 -2.15359   6.57210 102.99980
 -2.10351   9.10364 103.45574
 -2.05342  10.26748 103.96997
 -2.00334  13.83749 104.66300
 -1.95326   7.37834 105.03253
 -1.90317   6.11742 105.33892
 -1.85309  17.94313 106.23757
 -1.80301  11.77638 106.82737
 -1.75292  13.86044 107.52155
 -1.70284  12.25620 108.13538
 -1.65275   7.48991 108.51050
 -1.60267  10.12444 109.01757
 -1.55259   9.88933 109.51286
 -1.50250   9.37929 109.98261
 -1.45242   7.14564 110.34049
 -1.40234   7.76204 110.72924
 -1.35225  10.36956 111.24858
 -1.30217  12.85478 111.89239
 -1.25209  10.78688 112.43264
 -1.20200   7.15291 112.79088
 -1.15192   7.50108 113.16656
 -1.10184  10.68932 113.70192
 -1.05175  14.25625 114.41592
 -1.00167  20.73506 115.45441
 -0.95159  14.92719 116.20201
 -0.90150  14.98460 116.95249
 -0.85142  11.27640 117.51725
 -0.80134  13.10654 118.17368
 -0.75125   8.20590 118.58466
 -0.70117   4.64514 118.81730
 -0.65109  10.56271 119.34632
 -0.60100  17.03061 120.19927
 -0.55092  14.36972 120.91896
 -0.50083  14.30535 121.63542
 -0.45075  10.22136 122.14734
 -0.40067  14.89741 122.89345
 -0.35058  10.33512 123.41107
 -0.30050   4.71343 123.64714
 -0.25042   2.83190 123.78897
 -0.20033   2.13411 123.89585
 -0.15025   0.98421 123.94514
 -0.10017   0.80443 123.98543
 -0.05008   0.12135 123.99151
 -0.00000   0.16507 123.99978
  0.05008   0.00000 123.99978
  0.10017   0.00000 123.99978
  0.15025   0.00000 123.99978
  0.20033   0.00000 123.99978
  0.25042   0.00000 123.99978
  0.30050   0.00000 123.99978
  0.35058   0.00000 123.99978
  0.40067   0.00000 123.99978
  0.45075   0.00000 123.99978
  0.50083   0.00000 123.99978
  0.55092   0.00000 123.99978
  0.60100   0.00000 123.99978
  0.65109   0.00000 123.99978
  0.70117   0.00000 123.99978
  0.75125   0.00000 123.99978
  0.80134   0.00000 123.99978
  0.85142   0.00000 123.99978
  0.90150   0.00000 123.99978
  0.95159   0.00000 123.99978
  1.00167   0.00000 123.99978
  1.05175   0.00000 123.99978
  1.10184   0.00000 123.99978
  1.15192   0.00000 123.99978
  1.20200   0.00000 123.99978
  1.25209   0.00000 123.99978
  1.30217   0.00000 123.99978
  1.35225   0.00000 123.99978
  1.40234   0.00000 123.99978
  1.45242   0.00000 123.99978
  1.50250   0.00000 123.99978
  1.55259   0.00000 123.99978
  1.60267   0.00000 123.99978
  1.65275   0.00000 123.99978
  1.70284   0.00000 123.99978
  1.75292   0.00000 123.99978
  1.80301   0.00000 123.99978
  1.85309   0.00000 123.99978
  1.90317   0.00000 123.99978
  1.95326   0.00000 123.99978
  2.00334   0.00000 123.99978
  2.05342   0.00000 123.99978
  2.10351   0.00000 123.99978
  2.15359   0.00000 123.99978
  2.20367   0.36615 124.01811
  2.25376   2.34901 124.13576
  2.30384   6.12220 124.44238
  2.35392   8.28570 124.85736
  2.40401   4.88760 125.10215
  2.45409  11.71201 125.68873
  2.50417  10.11682 126.19541
  2.55426  12.80689 126.83682
  2.60434   4.84024 127.07924
  2.65442   4.44443 127.30183
  2.70451   8.32281 127.71867
  2.75459  11.60394 128.29983
  2.80467  14.35143 129.01860
  2.85476   9.20777 129.47976
  2.90484  13.44352 130.15306
  2.95492   8.58508 130.58303
  3.00501   6.52512 130.90983
  3.05509   6.99166 131.26000
  3.10518   4.19815 131.47025
  3.15526   7.10505 131.82610
  3.20534   1.68487 131.91048
  3.25543   2.88849 132.05515
  3.30551   2.00807 132.15572
  3.35559   0.39478 132.17549
  3.40568   0.80020 132.21557
  3.45576   1.22763 132.27705
  3.50584   1.33490 132.34391
  3.55593   0.17968 132.35291
  3.60601   2.41670 132.47394
  3.65609   2.32155 132.59022
  3.70618   2.40983 132.71091
  3.75626   5.52766 132.98775
  3.80634   3.98452 133.18731
  3.85643   4.30036 133.40269
  3.90651   4.80801 133.64349
  3.95659   7.35027 134.01162
  4.00668   6.77533 134.35095
  4.05676   4.81412 134.59206
  4.10684   7.65981 134.97569
  4.15693   6.93979 135.32326
  4.20701   4.03236 135.52521
  4.25710   5.60644 135.80600
  4.30718   2.21815 135.91709
  4.35726   3.99728 136.11729
  4.40735   5.57840 136.39668
  4.45743   9.45402 136.87017
  4.50751  10.20224 137.38113
  4.55760  16.00523 138.18273
  4.60768   8.54881 138.61088
  4.65776  15.13237 139.36876
  4.70785  12.90624 140.01515
  4.75793   7.85455 140.40854
  4.80801  15.43044 141.18135
  4.85810  17.92023 142.07885
  4.90818  10.36285 142.59786
  4.95826  12.35211 143.21650
  5.00835  12.85118 143.86013
  5.05843   3.12499 144.01664
  5.10851   1.30611 144.08205
  5.15860   0.84616 144.12443
  5.20868   1.35722 144.19241
  5.25876   1.65190 144.27514
  5.30885   2.28921 144.38979
  5.35893   1.12772 144.44627
  5.40902   1.78516 144.53568
  5.45910   1.48316 144.60996
  5.50918   0.37697 144.62884
  5.55927   1.46090 144.70201
  5.60935   2.16591 144.81048
  5.65943   2.02622 144.91196
  5.70952   2.21192 145.02275
  5.75960   1.32155 145.08893
  5.80968   1.17421 145.14774
  5.85977   2.25843 145.26085
  5.90985   5.28273 145.52543
  5.95993   1.42082 145.59659
  6.01002   0.48657 145.62096
  6.06010   4.39907 145.84128
  6.11018   0.75595 145.87914
  6.16027   5.44104 146.15165
  6.21035   2.28256 146.26596
  6.26043   3.75519 146.45404
  6.31052   1.79989 146.54418
  6.36060   3.31957 146.71044
  6.41068   7.05191 147.06362
  6.46077   3.94831 147.26137
  6.51085   4.44696 147.48409
  6.56093   1.22525 147.54545
  6.61102   4.45283 147.76846
  6.66110   2.58565 147.89796
  6.71119   5.53500 148.17517
  6.76127   2.12758 148.28173
  6.81135   3.02023 148.43299
  6.86144   7.83047 148.82517
  6.91152   8.65008 149.25840
  6.96160   5.76760 149.54726
  7.01169   5.17505 149.80644
  7.06177   2.80256 149.94681
  7.11185   2.68237 150.08115
  7.16194   5.02477 150.33281
  7.21202   2.26208 150.44610
  7.26210   2.65188 150.57891
  7.31219   9.82775 151.07112
  7.36227   4.14437 151.27869
  7.41235   3.38252 151.44809
  7.46244   2.45206 151.57090
  7.51252   7.24753 151.93388
  7.56260   4.10376 152.13941
  7.61269   7.18144 152.49909
  7.66277   3.60350 152.67956
  7.71285   3.36773 152.84823
  7.76294   3.74997 153.03604
  7.81302   1.90765 153.13158
  7.86311   8.93366 153.57901
  7.91319   7.84828 153.97208
  7.96327   2.48493 154.09653
  8.01336   2.63486 154.22850
  8.06344   6.22233 154.54013
  8.11352   5.04858 154.79298
  8.16361   6.44863 155.11595
  8.21369   7.77827 155.50551
  8.26377   5.47896 155.77992
  8.31386   5.81673 156.07124
  8.36394   2.71881 156.20741
  8.41402   8.20421 156.61831
  8.46411   2.46069 156.74155
  8.51419   3.00920 156.89226
  8.56427   3.00152 157.04258
  8.61436   3.91764 157.23879
  8.66444   6.91281 157.58501
  8.71452  11.29430 158.15067
  8.76461   6.57857 158.48014
  8.81469   7.71702 158.86664
  8.86477   4.36915 159.08546
  8.91486   3.67137 159.26934
  8.96494   6.80593 159.61020
  9.01503   9.30353 160.07615
  9.06511   5.97424 160.37537
  9.11519   3.82918 160.56714
  9.16528   4.46803 160.79092
  9.21536   3.65646 160.97405
  9.26544   4.58896 161.20388
  9.31553   2.95792 161.35202
  9.36561   8.33647 161.76954
  9.41569   7.46814 162.14357
  9.46578   4.69494 162.37871
  9.51586   5.54994 162.65667
  9.56594  12.82627 163.29905
  9.61603   7.61506 163.68044
  9.66611   5.33150 163.94746
  9.71619   8.71698 164.38404
  9.76628   7.16081 164.74268
  9.81636   5.02055 164.99412
  9.86644   6.17651 165.30346
  9.91653   9.79181 165.79387
  9.96661   5.82035 166.08538
 10.01669  11.84476 166.67860
     10.01669449     -20.03338898   601       2.41280160       1.00000000; Z= 30; 4s 3p_y 3p_z 3p_x 3d_xy 3d_yz 3d_z^2 3d_xz 3d_x^2-y^2 
-20.03339   0.00000   0.00000   0.00000   0.00000   0.00000   0.00000   0.00000   0.00000   0.00000
-19.98331   0.00000   0.00000   0.00000   0.00000   0.00000   0.00000   0.00000   0.00000   0.00000
-19.93322   0.00000   0.00000   0.00000   0.00000   0.00000   0.00000   0.00000   0.00000   0.00000
-19.88314   0.00000   0.00000   0.00000   0.00000   0.00000   0.00000   0.00000   0.00000   0.00000
-19.83306   0.00000   0.00000   0.00000   0.00000   0.00000   0.00000   0.00000   0.00000   0.00000
-19.78297   0.00000   0.00000   0.00000   0.00000   0.00000   0.00000   0.00000   0.00000   0.00000
-19.73289   0.00000   0.00000   0.00000   0.00000   0.00000   0.00000   0.00000   0.00000   0.00000
-19.68280   0.00000   0.00000   0.00000   0.00000   0.00000   0.00000   0.00000   0.00000   0.00000
-19.63272   0.00000   0.00000   0.00000   0.00000   0.00000   0.00000   0.00000   0.00000   0.00000
-19.58264   0.00000   0.00000   0.00000   0.00000   0.00000   0.00000   0.00000   0.00000   0.00000
-19.53255   0.00000   0.00000   0.00000   0.00000   0.00000   0.00000   0.00000   0.00000   0.00000
-19.48247   0.00000   0.00000   0.00000   0.00000   0.00000   0.00000   0.00000   0.00000   0.00000
-19.43239   0.00000   0.00000   0.00000   0.00000   0.00000   0.00000   0.00000   0.00000   0.00000
-19.38230   0.00000   0.00000   0.00000   0.00000   0.00000   0.00000   0.00000   0.00000   0.00000
-19.33222   0.00000   0.00000   0.00000   0.00000   0.00000   0.00000   0.00000   0.00000   0.00000
-19.28214   0.00000   0.00000   0.00000   0.00000   0.00000   0.00000   0.00000   0.00000   0.00000
-19.23205   0.00000   0.00000   0.00000   0.00000   0.00000   0.00000   0.00000   0.00000   0.00000
-19.18197   0.00000   0.00000   0.00000   0.00000   0.00000   0.00000   0.00000   0.00000   0.00000
-19.13189   0.00000   0.00000   0.00000   0.00000   0.00000   0.00000   0.00000   0.00000   0.00000
-19.08180   0.00000   0.00000   0.00000   0.00000   0.00000   0.00000   0.00000   0.00000   0.00000
-19.03172   0.00000   0.00000   0.00000   0.00000   0.00000   0.00000   0.00000   0.00000   0.00000
-18.98164   0.00000   0.00000   0.00000   0.00000   0.00000   0.00000   0.00000   0.00000   0.00000
-18.93155   0.00000   0.00000   0.00000   0.00000   0.00000   0.00000   0.00000   0.00000   0.00000
-18.88147   0.00000   0.00000   0.00000   0.00000   0.00000   0.00000   0.00000   0.00000   0.00000
-18.83139   0.00000   0.00000   0.00000   0.00000   0.00000   0.00000   0.00000   0.00000   0.00000
-18.78130   0.00000   0.00000   0.00000   0.00000   0.00000   0.00000   0.00000   0.00000   0.00000
-18.73122   0.00000   0.00000   0.00000   0.00000   0.00000   0.00000   0.00000   0.00000   0.00000
-18.68114   0.00000   0.00000   0.00000   0.00000   0.00000   0.00000   0.00000   0.00000   0.00000
-18.63105   0.00000   0.00000   0.00000   0.00000   0.00000   0.00000   0.00000   0.00000   0.00000
-18.58097   0.00000   0.00000   0.00000   0.00000   0.00000   0.00000   0.00000   0.00000   0.00000
-18.53088   0.00000   0.00000   0.00000   0.00000   0.00000   0.00000   0.00000   0.00000   0.00000
-18.48080   0.00000   0.00000   0.00000   0.00000   0.00000   0.00000   0.00000   0.00000   0.00000
-18.43072   0.00000   0.00000   0.00000   0.00000   0.00000   0.00000   0.00000   0.00000   0.00000
-18.38063   0.00000   0.00000   0.00000   0.00000   0.00000   0.00000   0.00000   0.00000   0.00000
-18.33055   0.00000   0.00000   0.00000   0.00000   0.00000   0.00000   0.00000   0.00000   0.00000
-18.28047   0.00000   0.00000   0.00000   0.00000   0.00000   0.00000   0.00000   0.00000   0.00000
-18.23038   0.00000   0.00000   0.00000   0.00000   0.00000   0.00000   0.00000   0.00000   0.00000
-18.18030   0.00000   0.00000   0.00000   0.00000   0.00000   0.00000   0.00000   0.00000   0.00000
-18.13022   0.00000   0.00000   0.00000   0.00000   0.00000   0.00000   0.00000   0.00000   0.00000
-18.08013   0.00000   0.00000   0.00000   0.00000   0.00000   0.00000   0.00000   0.00000   0.00000
-18.03005   0.00000   0.00000   0.00000   0.00000   0.00000   0.00000   0.00000   0.00000   0.00000
-17.97997   0.00000   0.00000   0.00000   0.00000   0.00000   0.00000   0.00000   0.00000   0.00000
-17.92988   0.00000   0.00000   0.00000   0.00000   0.00000   0.00000   0.00000   0.00000   0.00000
-17.87980   0.00000   0.00000   0.00000   0.00000   0.00000   0.00000   0.00000   0.00000   0.00000
-17.82972   0.00000   0.00000   0.00000   0.00000   0.00000   0.00000   0.00000   0.00000   0.00000
-17.77963   0.00000   0.00000   0.00000   0.00000   0.00000   0.00000   0.00000   0.00000   0.00000
-17.72955   0.00000   0.00000   0.00000   0.00000   0.00000   0.00000   0.00000   0.00000   0.00000
-17.67947   0.00000   0.00000   0.00000   0.00000   0.00000   0.00000   0.00000   0.00000   0.00000
-17.62938   0.00000   0.00000   0.00000   0.00000   0.00000   0.00000   0.00000   0.00000   0.00000
-17.57930   0.00000   0.00000   0.00000   0.00000   0.00000   0.00000   0.00000   0.00000   0.00000
-17.52922   0.00000   0.00000   0.00000   0.00000   0.00000   0.00000   0.00000   0.00000   0.00000
-17.47913   0.00000   0.00000   0.00000   0.00000   0.00000   0.00000   0.00000   0.00000   0.00000
-17.42905   0.00000   0.00000   0.00000   0.00000   0.00000   0.00000   0.00000   0.00000   0.00000
-17.37896   0.00000   0.00000   0.00000   0.00000   0.00000   0.00000   0.00000   0.00000   0.00000
-17.32888   0.00000   0.00000   0.00000   0.00000   0.00000   0.00000   0.00000   0.00000   0.00000
-17.27880   0.00000   0.00000   0.00000   0.00000   0.00000   0.00000   0.00000   0.00000   0.00000
-17.22871   0.00000   0.00000   0.00000   0.00000   0.00000   0.00000   0.00000   0.00000   0.00000
-17.17863   0.00000   0.00000   0.00000   0.00000   0.00000   0.00000   0.00000   0.00000   0.00000
-17.12855   0.00000   0.00000   0.00000   0.00000   0.00000   0.00000   0.00000   0.00000   0.00000
-17.07846   0.00000   0.00000   0.00000   0.00000   0.00000   0.00000   0.00000   0.00000   0.00000
-17.02838   0.00000   0.00000   0.00000   0.00000   0.00000   0.00000   0.00000   0.00000   0.00000
-16.97830   0.00000   0.00000   0.00000   0.00000   0.00000   0.00000   0.00000   0.00000   0.00000
-16.92821   0.00000   0.00000   0.00000   0.00000   0.00000   0.00000   0.00000   0.00000   0.00000
-16.87813   0.00000   0.00000   0.00000   0.00000   0.00000   0.00000   0.00000   0.00000   0.00000
-16.82805   0.00000   0.00000   0.00000   0.00000   0.00000   0.00000   0.00000   0.00000   0.00000
-16.77796   0.00000   0.00000   0.00000   0.00000   0.00000   0.00000   0.00000   0.00000   0.00000
-16.72788   0.00000   0.00000   0.00000   0.00000   0.00000   0.00000   0.00000   0.00000   0.00000
-16.67780   0.00000   0.00000   0.00000   0.00000   0.00000   0.00000   0.00000   0.00000   0.00000
-16.62771   0.00000   0.00000   0.00000   0.00000   0.00000   0.00000   0.00000   0.00000   0.00000
-16.57763   0.00000   0.00000   0.00000   0.00000   0.00000   0.00000   0.00000   0.00000   0.00000
-16.52755   0.00000   0.00000   0.00000   0.00000   0.00000   0.00000   0.00000   0.00000   0.00000
-16.47746   0.00000   0.00000   0.00000   0.00000   0.00000   0.00000   0.00000   0.00000   0.00000
-16.42738   0.00000   0.00000   0.00000   0.00000   0.00000   0.00000   0.00000   0.00000   0.00000
-16.37730   0.00000   0.00000   0.00000   0.00000   0.00000   0.00000   0.00000   0.00000   0.00000
-16.32721   0.00000   0.00000   0.00000   0.00000   0.00000   0.00000   0.00000   0.00000   0.00000
-16.27713   0.00000   0.00000   0.00000   0.00000   0.00000   0.00000   0.00000   0.00000   0.00000
-16.22705   0.00000   0.00000   0.00000   0.00000   0.00000   0.00000   0.00000   0.00000   0.00000
-16.17696   0.00000   0.00000   0.00000   0.00000   0.00000   0.00000   0.00000   0.00000   0.00000
-16.12688   0.00000   0.00000   0.00000   0.00000   0.00000   0.00000   0.00000   0.00000   0.00000
-16.07679   0.00000   0.00000   0.00000   0.00000   0.00000   0.00000   0.00000   0.00000   0.00000
-16.02671   0.00000   0.00000   0.00000   0.00000   0.00000   0.00000   0.00000   0.00000   0.00000
-15.97663   0.00000   0.00000   0.00000   0.00000   0.00000   0.00000   0.00000   0.00000   0.00000
-15.92654   0.00000   0.00000   0.00000   0.00000   0.00000   0.00000   0.00000   0.00000   0.00000
-15.87646   0.00000   0.00000   0.00000   0.00000   0.00000   0.00000   0.00000   0.00000   0.00000
-15.82638   0.00000   0.00000   0.00000   0.00000   0.00000   0.00000   0.00000   0.00000   0.00000
-15.77629   0.00000   0.00000   0.00000   0.00000   0.00000   0.00000   0.00000   0.00000   0.00000
-15.72621   0.00000   0.00000   0.00000   0.00000   0.00000   0.00000   0.00000   0.00000   0.00000
-15.67613   0.00000   0.00000   0.00000   0.00000   0.00000   0.00000   0.00000   0.00000   0.00000
-15.62604   0.00000   0.00000   0.00000   0.00000   0.00000   0.00000   0.00000   0.00000   0.00000
-15.57596   0.00014   0.00000   0.00000   0.00000   0.00000   0.00000   0.00000   0.00000   0.00000
-15.52588   0.00260   0.00000   0.00000   0.00000   0.00000   0.00000   0.00000   0.00000   0.00000
-15.47579   0.01360  -0.00000  -0.00000   0.00000   0.00002   0.00002   0.00006   0.00001   0.00005
-15.42571   0.02698  -0.00000  -0.00000   0.00000   0.00011   0.00006   0.00020   0.00006   0.00015
-15.37563   0.02499   0.00000  -0.00001  -0.00000   0.00019   0.00008   0.00024   0.00009   0.00018
-15.32554   0.00925  -0.00000  -0.00000  -0.00000   0.00013   0.00005   0.00004   0.00006   0.00012
-15.27546   0.03321  -0.00001  -0.00001  -0.00001   0.00041   0.00018   0.00039   0.00020   0.00043
-15.22538   0.05677  -0.00002  -0.00004  -0.00001   0.00055   0.00032   0.00127   0.00028   0.00071
-15.17529   0.04623  -0.00002  -0.00004  -0.00000   0.00037   0.00036   0.00121   0.00019   0.00075
-15.12521   0.02424  -0.00001   0.00000  -0.00003   0.00077   0.00015   0.00035   0.00036   0.00039
-15.07513   0.06116  -0.00003  -0.00002  -0.00005   0.00166   0.00054   0.00141   0.00082   0.00126
-15.02504   0.06914  -0.00007  -0.00004  -0.00003   0.00137   0.00092   0.00193   0.00069   0.00195
-14.97496   0.04474  -0.00007  -0.00002  -0.00001   0.00070   0.00090   0.00155   0.00032   0.00190
-14.92487   0.10509  -0.00007  -0.00009  -0.00008   0.00272   0.00108   0.00514   0.00137   0.00238
-14.87479   0.07273  -0.00005  -0.00004  -0.00010   0.00324   0.00076   0.00298   0.00163   0.00190
-14.82471   0.07213  -0.00009  -0.00008  -0.00007   0.00264   0.00125   0.00443   0.00137   0.00264
-14.77462   0.08444  -0.00011  -0.00011  -0.00006   0.00263   0.00183   0.00532   0.00131   0.00365
-14.72454   0.09684  -0.00017  -0.00006  -0.00013   0.00470   0.00262   0.00437   0.00230   0.00581
-14.67446   0.10414  -0.00015  -0.00019  -0.00011   0.00473   0.00244   0.01046   0.00251   0.00538