 vasp.5.4.4.18Apr17-6-g9f103f2a35 (build May 31 2017 16:34:25) complex          
  
 executed on             LinuxIFC date 2017.10.05  02:40:59
 running on   96 total cores
 distrk:  each k-point on   96 cores,    1 groups
 distr:  one band on NCORES_PER_BAND=   1 cores,   96 groups


--------------------------------------------------------------------------------------------------------


 INCAR:
 POTCAR:    PAW_PBE Zn 06Sep2000                  
 POTCAR:    PAW_PBE Mo 08Apr2002                  
 POTCAR:    PAW_PBE N 08Apr2002                   

 ----------------------------------------------------------------------------- 
|                                                                             |
|           W    W    AA    RRRRR   N    N  II  N    N   GGGG   !!!           |
|           W    W   A  A   R    R  NN   N  II  NN   N  G    G  !!!           |
|           W    W  A    A  R    R  N N  N  II  N N  N  G       !!!           |
|           W WW W  AAAAAA  RRRRR   N  N N  II  N  N N  G  GGG   !            |
|           WW  WW  A    A  R   R   N   NN  II  N   NN  G    G                |
|           W    W  A    A  R    R  N    N  II  N    N   GGGG   !!!           |
|                                                                             |
|      For optimal performance we recommend to set                            |
|        NCORE= 4 - approx SQRT( number of cores)                             |
|      NCORE specifies how many cores store one orbital (NPAR=cpu/NCORE).     |
|      This setting can  greatly improve the performance of VASP for DFT.     |
|      The default,   NCORE=1            might be grossly inefficient         |
|      on modern multi-core architectures or massively parallel machines.     |
|      Do your own testing !!!!                                               |
|      Unfortunately you need to use the default for GW and RPA calculations. |
|      (for HF NCORE is supported but not extensively tested yet)             |
|                                                                             |
 ----------------------------------------------------------------------------- 

 POTCAR:    PAW_PBE Zn 06Sep2000                  
   VRHFIN =Zn: d10 p2                                                           
   LEXCH  = PE                                                                  
   EATOM  =  1748.8345 eV,  128.5357 Ry                                         
                                                                                
   TITEL  = PAW_PBE Zn 06Sep2000                                                
   LULTRA =        F    use ultrasoft PP ?                                      
   IUNSCR =        1    unscreen: 0-lin 1-nonlin 2-no                           
   RPACOR =    2.000    partial core radius                                     
   POMASS =   65.390; ZVAL   =   12.000    mass and valenz                      
   RCORE  =    2.300    outmost cutoff radius                                   
   RWIGS  =    2.400; RWIGS  =    1.270    wigner-seitz radius (au A)           
   ENMAX  =  276.723; ENMIN  =  207.542 eV                                      
   RCLOC  =    1.828    cutoff for local pot                                    
   LCOR   =        T    correct aug charges                                     
   LPAW   =        T    paw PP                                                  
   EAUG   =  575.892                                                            
   DEXC   =    0.000                                                            
   RMAX   =    2.347    core radius for proj-oper                               
   RAUG   =    1.300    factor for augmentation sphere                          
   RDEP   =    2.324    radius for radial grids                                 
   RDEPT  =    1.788    core radius for aug-charge                              
                                                                                
   Atomic configuration                                                         
    9 entries                                                                   
     n  l   j            E        occ.                                          
     1  0  0.50     -9524.6913   2.0000                                         
     2  0  0.50     -1158.1882   2.0000                                         
     2  1  1.50     -1003.8506   6.0000                                         
     3  0  0.50      -129.2194   2.0000                                         
     3  1  1.50       -83.3890   6.0000                                         
     3  2  2.50       -10.1410  10.0000                                         
     4  0  0.50        -5.9785   2.0000                                         
     4  1  0.50        -4.0817   0.0000                                         
     4  3  2.50        -1.3606   0.0000                                         
   Description                                                                  
     l       E           TYP  RCUT    TYP  RCUT                                 
     2    -10.1410010     23  2.300                                             
     2    -11.5015836     23  2.300                                             
     0     -5.9785163     23  2.300                                             
     0      1.1858015     23  2.300                                             
     1     -2.7211652     23  2.300                                             
     1     13.2444212     23  2.300                                             
  local pseudopotential read in
  partial core-charges read in
  partial kinetic energy density read in
  atomic valenz-charges read in
  non local Contribution for L=           2  read in
    real space projection operators read in
  non local Contribution for L=           2  read in
    real space projection operators read in
  non local Contribution for L=           0  read in
    real space projection operators read in
  non local Contribution for L=           0  read in
    real space projection operators read in
  non local Contribution for L=           1  read in
    real space projection operators read in
  non local Contribution for L=           1  read in
    real space projection operators read in
    PAW grid and wavefunctions read in
 
   number of l-projection  operators is LMAX  =           6
   number of lm-projection operators is LMMAX =          18
 
 POTCAR:    PAW_PBE Mo 08Apr2002                  
   VRHFIN =Mo: 4p5s4d                                                           
   LEXCH  = PE                                                                  
   EATOM  =   217.5176 eV,   15.9871 Ry                                         
                                                                                
   TITEL  = PAW_PBE Mo 08Apr2002                                                
   LULTRA =        F    use ultrasoft PP ?                                      
   IUNSCR =        1    unscreen: 0-lin 1-nonlin 2-no                           
   RPACOR =    2.200    partial core radius                                     
   POMASS =   95.940; ZVAL   =    6.000    mass and valenz                      
   RCORE  =    2.750    outmost cutoff radius                                   
   RWIGS  =    2.750; RWIGS  =    1.455    wigner-seitz radius (au A)           
   ENMAX  =  224.584; ENMIN  =  168.438 eV                                      
   RCLOC  =    2.111    cutoff for local pot                                    
   LCOR   =        T    correct aug charges                                     
   LPAW   =        T    paw PP                                                  
   EAUG   =  345.278                                                            
   DEXC   =    0.000                                                            
   RMAX   =    2.821    core radius for proj-oper                               
   RAUG   =    1.300    factor for augmentation sphere                          
   RDEP   =    2.815    radius for radial grids                                 
   RDEPT  =    2.211    core radius for aug-charge                              
                                                                                
   Atomic configuration                                                         
   12 entries                                                                   
     n  l   j            E        occ.                                          
     1  0  0.50    -19819.0341   2.0000                                         
     2  0  0.50     -2799.0127   2.0000                                         
     2  1  1.50     -2502.0276   6.0000                                         
     3  0  0.50      -476.4448   2.0000                                         
     3  1  1.50      -379.1496   6.0000                                         
     3  2  2.50      -220.9367  10.0000                                         
     4  0  0.50       -64.3378   2.0000                                         
     4  1  1.50       -38.4773   6.0000                                         
     4  2  2.50        -3.7535   5.0000                                         
     5  0  0.50        -4.0862   1.0000                                         
     5  1  0.50        -2.7701   0.0000                                         
     4  3  2.50        -1.3606   0.0000                                         
   Description                                                                  
     l       E           TYP  RCUT    TYP  RCUT                                 
     2     -3.7534765     23  2.500                                             
     2     -5.1140591     23  2.500                                             
     0     -4.0861560     23  2.600                                             
     0     13.6058260     23  2.600                                             
     1      5.4423304     23  2.750                                             
     1     27.2116520     23  2.750                                             
  local pseudopotential read in
  partial core-charges read in
  partial kinetic energy density read in
  atomic valenz-charges read in
  non local Contribution for L=           2  read in
    real space projection operators read in
  non local Contribution for L=           2  read in
    real space projection operators read in
  non local Contribution for L=           0  read in
    real space projection operators read in
  non local Contribution for L=           0  read in
    real space projection operators read in
  non local Contribution for L=           1  read in
    real space projection operators read in
  non local Contribution for L=           1  read in
    real space projection operators read in
    PAW grid and wavefunctions read in
 
   number of l-projection  operators is LMAX  =           6
   number of lm-projection operators is LMMAX =          18
 
 POTCAR:    PAW_PBE N 08Apr2002                   
   VRHFIN =N: s2p3                                                              
   LEXCH  = PE                                                                  
   EATOM  =   264.5486 eV,   19.4438 Ry                                         
                                                                                
   TITEL  = PAW_PBE N 08Apr2002                                                 
   LULTRA =        F    use ultrasoft PP ?                                      
   IUNSCR =        1    unscreen: 0-lin 1-nonlin 2-no                           
   RPACOR =    1.200    partial core radius                                     
   POMASS =   14.001; ZVAL   =    5.000    mass and valenz                      
   RCORE  =    1.500    outmost cutoff radius                                   
   RWIGS  =    1.400; RWIGS  =    0.741    wigner-seitz radius (au A)           
   ENMAX  =  400.000; ENMIN  =  300.000 eV                                      
   ICORE  =        2    local potential                                         
   LCOR   =        T    correct aug charges                                     
   LPAW   =        T    paw PP                                                  
   EAUG   =  627.112                                                            
   DEXC   =    0.000                                                            
   RMAX   =    1.529    core radius for proj-oper                               
   RAUG   =    1.300    factor for augmentation sphere                          
   RDEP   =    1.514    radius for radial grids                                 
   RDEPT  =    1.338    core radius for aug-charge                              
                                                                                
   Atomic configuration                                                         
    4 entries                                                                   
     n  l   j            E        occ.                                          
     1  0  0.50      -384.7179   2.0000                                         
     2  0  0.50       -18.5828   2.0000                                         
     2  1  0.50        -7.0898   3.0000                                         
     3  2  1.50        -6.8029   0.0000                                         
   Description                                                                  
     l       E           TYP  RCUT    TYP  RCUT                                 
     0    -18.5828119     23  1.200                                             
     0    -13.5018863     23  1.200                                             
     1     -7.0897853     23  1.500                                             
     1      9.5240782     23  1.500                                             
     2     -6.8029130      7  1.500                                             
  local pseudopotential read in
  partial core-charges read in
  partial kinetic energy density read in
  atomic valenz-charges read in
  non local Contribution for L=           0  read in
    real space projection operators read in
  non local Contribution for L=           0  read in
    real space projection operators read in
  non local Contribution for L=           1  read in
    real space projection operators read in
  non local Contribution for L=           1  read in
    real space projection operators read in
    PAW grid and wavefunctions read in
 
   number of l-projection  operators is LMAX  =           4
   number of lm-projection operators is LMMAX =           8
 
  PAW_PBE Zn 06Sep2000                  :
 energy of atom  1       EATOM=-1748.8345
 kinetic energy error for atom=    0.0027 (will be added to EATOM!!)
  PAW_PBE Mo 08Apr2002                  :
 energy of atom  2       EATOM= -217.5176
 kinetic energy error for atom=    0.0009 (will be added to EATOM!!)
  PAW_PBE N 08Apr2002                   :
 energy of atom  3       EATOM= -264.5486
 kinetic energy error for atom=    0.0116 (will be added to EATOM!!)
 
 
 POSCAR: unknown system                          
  positions in direct lattice
  velocities in cartesian coordinates
 exchange correlation table for  LEXCH =        8
   RHO(1)=    0.500       N(1)  =     2000
   RHO(2)=  100.500       N(2)  =     4000

 VTST: version 3.1, (03/28/14)

 CHAIN: initializing optimizer
 
 OPT: Using VASP Dynamics algorithm
 CHAIN: Read ICHAIN            0
 
 POSCAR: unknown system                          
  positions in direct lattice
  velocities in cartesian coordinates
 


--------------------------------------------------------------------------------------------------------


 ion  position               nearest neighbor table
   1  0.251  0.832  0.731-  11 2.04  12 2.05  14 2.06  15 2.06   8 3.27
   2  0.249  0.168  0.231-  12 2.04  11 2.05  13 2.06  16 2.06   7 3.27
   3  0.751  0.168  0.231-   9 2.04  10 2.05  13 2.06  16 2.06   7 3.27
   4  0.749  0.832  0.731-  10 2.04   9 2.05  14 2.06  15 2.06   8 3.27
   5  0.000  0.334  0.730-  10 2.05  11 2.05  13 2.06  15 2.08
   6  0.500  0.666  0.230-   9 2.05  12 2.05  14 2.06  16 2.08
   7  0.000  0.670  0.229-  15 1.88  13 1.89   9 1.90  12 1.90   2 3.27   3 3.27
   8  0.500  0.330  0.729-  16 1.88  14 1.89  10 1.90  11 1.90   1 3.27   4 3.27
   9  0.763  0.827  0.113-   7 1.90   3 2.04   6 2.05   4 2.05
  10  0.737  0.173  0.613-   8 1.90   4 2.04   5 2.05   3 2.05
  11  0.263  0.173  0.613-   8 1.90   1 2.04   5 2.05   2 2.05
  12  0.237  0.827  0.113-   7 1.90   2 2.04   6 2.05   1 2.05
  13  0.000  0.357  0.113-   7 1.89   3 2.06   2 2.06   5 2.06
  14  0.500  0.643  0.613-   8 1.89   4 2.06   1 2.06   6 2.06
  15  0.000  0.672  0.579-   7 1.88   4 2.06   1 2.06   5 2.08
  16  0.500  0.328  0.079-   8 1.88   3 2.06   2 2.06   6 2.08
 

IMPORTANT INFORMATION: All symmetrisations will be switched off!
NOSYMM: (Re-)initialisation of all symmetry stuff for point group C_1.

 
 
 KPOINTS: Automatic generation                    

Automatic generation of k-mesh.
Space group operators:
 irot       det(A)        alpha          n_x          n_y          n_z        tau_x        tau_y        tau_z
    1     1.000000     0.000000     1.000000     0.000000     0.000000     0.000000     0.000000     0.000000
 
 Subroutine IBZKPT returns following result:
 ===========================================
 
 Found    216 irreducible k-points:
 
 Following reciprocal coordinates:
            Coordinates               Weight
  0.000000  0.000000  0.000000      1.000000
  0.166667  0.000000  0.000000      1.000000
  0.333333  0.000000  0.000000      1.000000
  0.500000  0.000000  0.000000      1.000000
 -0.333333  0.000000  0.000000      1.000000
 -0.166667  0.000000  0.000000      1.000000
  0.000000  0.166667  0.000000      1.000000
  0.166667  0.166667  0.000000      1.000000
  0.333333  0.166667  0.000000      1.000000
  0.500000  0.166667  0.000000      1.000000
 -0.333333  0.166667  0.000000      1.000000
 -0.166667  0.166667  0.000000      1.000000
  0.000000  0.333333  0.000000      1.000000
  0.166667  0.333333  0.000000      1.000000
  0.333333  0.333333  0.000000      1.000000
  0.500000  0.333333  0.000000      1.000000
 -0.333333  0.333333  0.000000      1.000000
 -0.166667  0.333333  0.000000      1.000000
  0.000000  0.500000  0.000000      1.000000
  0.166667  0.500000  0.000000      1.000000
  0.333333  0.500000  0.000000      1.000000
  0.500000  0.500000  0.000000      1.000000
 -0.333333  0.500000  0.000000      1.000000
 -0.166667  0.500000  0.000000      1.000000
  0.000000 -0.333333  0.000000      1.000000
  0.166667 -0.333333  0.000000      1.000000
  0.333333 -0.333333  0.000000      1.000000
  0.500000 -0.333333  0.000000      1.000000
 -0.333333 -0.333333  0.000000      1.000000
 -0.166667 -0.333333  0.000000      1.000000
  0.000000 -0.166667  0.000000      1.000000
  0.166667 -0.166667  0.000000      1.000000
  0.333333 -0.166667  0.000000      1.000000
  0.500000 -0.166667  0.000000      1.000000
 -0.333333 -0.166667  0.000000      1.000000
 -0.166667 -0.166667  0.000000      1.000000
  0.000000  0.000000  0.166667      1.000000
  0.166667  0.000000  0.166667      1.000000
  0.333333  0.000000  0.166667      1.000000
  0.500000  0.000000  0.166667      1.000000
 -0.333333  0.000000  0.166667      1.000000
 -0.166667  0.000000  0.166667      1.000000
  0.000000  0.166667  0.166667      1.000000
  0.166667  0.166667  0.166667      1.000000
  0.333333  0.166667  0.166667      1.000000
  0.500000  0.166667  0.166667      1.000000
 -0.333333  0.166667  0.166667      1.000000
 -0.166667  0.166667  0.166667      1.000000
  0.000000  0.333333  0.166667      1.000000
  0.166667  0.333333  0.166667      1.000000
  0.333333  0.333333  0.166667      1.000000
  0.500000  0.333333  0.166667      1.000000
 -0.333333  0.333333  0.166667      1.000000
 -0.166667  0.333333  0.166667      1.000000
  0.000000  0.500000  0.166667      1.000000
  0.166667  0.500000  0.166667      1.000000
  0.333333  0.500000  0.166667      1.000000
  0.500000  0.500000  0.166667      1.000000
 -0.333333  0.500000  0.166667      1.000000
 -0.166667  0.500000  0.166667      1.000000
  0.000000 -0.333333  0.166667      1.000000
  0.166667 -0.333333  0.166667      1.000000
  0.333333 -0.333333  0.166667      1.000000
  0.500000 -0.333333  0.166667      1.000000
 -0.333333 -0.333333  0.166667      1.000000
 -0.166667 -0.333333  0.166667      1.000000
  0.000000 -0.166667  0.166667      1.000000
  0.166667 -0.166667  0.166667      1.000000
  0.333333 -0.166667  0.166667      1.000000
  0.500000 -0.166667  0.166667      1.000000
 -0.333333 -0.166667  0.166667      1.000000
 -0.166667 -0.166667  0.166667      1.000000
  0.000000  0.000000  0.333333      1.000000
  0.166667  0.000000  0.333333      1.000000
  0.333333  0.000000  0.333333      1.000000
  0.500000  0.000000  0.333333      1.000000
 -0.333333  0.000000  0.333333      1.000000
 -0.166667  0.000000  0.333333      1.000000
  0.000000  0.166667  0.333333      1.000000
  0.166667  0.166667  0.333333      1.000000
  0.333333  0.166667  0.333333      1.000000
  0.500000  0.166667  0.333333      1.000000
 -0.333333  0.166667  0.333333      1.000000
 -0.166667  0.166667  0.333333      1.000000
  0.000000  0.333333  0.333333      1.000000
  0.166667  0.333333  0.333333      1.000000
  0.333333  0.333333  0.333333      1.000000
  0.500000  0.333333  0.333333      1.000000
 -0.333333  0.333333  0.333333      1.000000
 -0.166667  0.333333  0.333333      1.000000
  0.000000  0.500000  0.333333      1.000000
  0.166667  0.500000  0.333333      1.000000
  0.333333  0.500000  0.333333      1.000000
  0.500000  0.500000  0.333333      1.000000
 -0.333333  0.500000  0.333333      1.000000
 -0.166667  0.500000  0.333333      1.000000
  0.000000 -0.333333  0.333333      1.000000
  0.166667 -0.333333  0.333333      1.000000
  0.333333 -0.333333  0.333333      1.000000
  0.500000 -0.333333  0.333333      1.000000
 -0.333333 -0.333333  0.333333      1.000000
 -0.166667 -0.333333  0.333333      1.000000
  0.000000 -0.166667  0.333333      1.000000
  0.166667 -0.166667  0.333333      1.000000
  0.333333 -0.166667  0.333333      1.000000
  0.500000 -0.166667  0.333333      1.000000
 -0.333333 -0.166667  0.333333      1.000000
 -0.166667 -0.166667  0.333333      1.000000
  0.000000  0.000000  0.500000      1.000000
  0.166667  0.000000  0.500000      1.000000
  0.333333  0.000000  0.500000      1.000000
  0.500000  0.000000  0.500000      1.000000
 -0.333333  0.000000  0.500000      1.000000
 -0.166667  0.000000  0.500000      1.000000
  0.000000  0.166667  0.500000      1.000000
  0.166667  0.166667  0.500000      1.000000
  0.333333  0.166667  0.500000      1.000000
  0.500000  0.166667  0.500000      1.000000
 -0.333333  0.166667  0.500000      1.000000
 -0.166667  0.166667  0.500000      1.000000
  0.000000  0.333333  0.500000      1.000000
  0.166667  0.333333  0.500000      1.000000
  0.333333  0.333333  0.500000      1.000000
  0.500000  0.333333  0.500000      1.000000
 -0.333333  0.333333  0.500000      1.000000
 -0.166667  0.333333  0.500000      1.000000
  0.000000  0.500000  0.500000      1.000000
  0.166667  0.500000  0.500000      1.000000
  0.333333  0.500000  0.500000      1.000000
  0.500000  0.500000  0.500000      1.000000
 -0.333333  0.500000  0.500000      1.000000
 -0.166667  0.500000  0.500000      1.000000
  0.000000 -0.333333  0.500000      1.000000
  0.166667 -0.333333  0.500000      1.000000
  0.333333 -0.333333  0.500000      1.000000
  0.500000 -0.333333  0.500000      1.000000
 -0.333333 -0.333333  0.500000      1.000000
 -0.166667 -0.333333  0.500000      1.000000
  0.000000 -0.166667  0.500000      1.000000
  0.166667 -0.166667  0.500000      1.000000
  0.333333 -0.166667  0.500000      1.000000
  0.500000 -0.166667  0.500000      1.000000
 -0.333333 -0.166667  0.500000      1.000000
 -0.166667 -0.166667  0.500000      1.000000
  0.000000  0.000000 -0.333333      1.000000
  0.166667  0.000000 -0.333333      1.000000
  0.333333  0.000000 -0.333333      1.000000
  0.500000  0.000000 -0.333333      1.000000
 -0.333333  0.000000 -0.333333      1.000000
 -0.166667  0.000000 -0.333333      1.000000
  0.000000  0.166667 -0.333333      1.000000
  0.166667  0.166667 -0.333333      1.000000
  0.333333  0.166667 -0.333333      1.000000
  0.500000  0.166667 -0.333333      1.000000
 -0.333333  0.166667 -0.333333      1.000000
 -0.166667  0.166667 -0.333333      1.000000
  0.000000  0.333333 -0.333333      1.000000
  0.166667  0.333333 -0.333333      1.000000
  0.333333  0.333333 -0.333333      1.000000
  0.500000  0.333333 -0.333333      1.000000
 -0.333333  0.333333 -0.333333      1.000000
 -0.166667  0.333333 -0.333333      1.000000
  0.000000  0.500000 -0.333333      1.000000
  0.166667  0.500000 -0.333333      1.000000
  0.333333  0.500000 -0.333333      1.000000
  0.500000  0.500000 -0.333333      1.000000
 -0.333333  0.500000 -0.333333      1.000000
 -0.166667  0.500000 -0.333333      1.000000
  0.000000 -0.333333 -0.333333      1.000000
  0.166667 -0.333333 -0.333333      1.000000
  0.333333 -0.333333 -0.333333      1.000000
  0.500000 -0.333333 -0.333333      1.000000
 -0.333333 -0.333333 -0.333333      1.000000
 -0.166667 -0.333333 -0.333333      1.000000
  0.000000 -0.166667 -0.333333      1.000000
  0.166667 -0.166667 -0.333333      1.000000
  0.333333 -0.166667 -0.333333      1.000000
  0.500000 -0.166667 -0.333333      1.000000
 -0.333333 -0.166667 -0.333333      1.000000
 -0.166667 -0.166667 -0.333333      1.000000
  0.000000  0.000000 -0.166667      1.000000
  0.166667  0.000000 -0.166667      1.000000
  0.333333  0.000000 -0.166667      1.000000
  0.500000  0.000000 -0.166667      1.000000
 -0.333333  0.000000 -0.166667      1.000000
 -0.166667  0.000000 -0.166667      1.000000
  0.000000  0.166667 -0.166667      1.000000
  0.166667  0.166667 -0.166667      1.000000
  0.333333  0.166667 -0.166667      1.000000
  0.500000  0.166667 -0.166667      1.000000
 -0.333333  0.166667 -0.166667      1.000000
 -0.166667  0.166667 -0.166667      1.000000
  0.000000  0.333333 -0.166667      1.000000
  0.166667  0.333333 -0.166667      1.000000
  0.333333  0.333333 -0.166667      1.000000
  0.500000  0.333333 -0.166667      1.000000
 -0.333333  0.333333 -0.166667      1.000000
 -0.166667  0.333333 -0.166667      1.000000
  0.000000  0.500000 -0.166667      1.000000
  0.166667  0.500000 -0.166667      1.000000
  0.333333  0.500000 -0.166667      1.000000
  0.500000  0.500000 -0.166667      1.000000
 -0.333333  0.500000 -0.166667      1.000000
 -0.166667  0.500000 -0.166667      1.000000
  0.000000 -0.333333 -0.166667      1.000000
  0.166667 -0.333333 -0.166667      1.000000
  0.333333 -0.333333 -0.166667      1.000000
  0.500000 -0.333333 -0.166667      1.000000
 -0.333333 -0.333333 -0.166667      1.000000
 -0.166667 -0.333333 -0.166667      1.000000
  0.000000 -0.166667 -0.166667      1.000000
  0.166667 -0.166667 -0.166667      1.000000
  0.333333 -0.166667 -0.166667      1.000000
  0.500000 -0.166667 -0.166667      1.000000
 -0.333333 -0.166667 -0.166667      1.000000
 -0.166667 -0.166667 -0.166667      1.000000
 
 Following cartesian coordinates:
            Coordinates               Weight
  0.000000  0.000000  0.000000      1.000000
  0.025358  0.000000  0.000000      1.000000
  0.050716  0.000000  0.000000      1.000000
  0.076074  0.000000  0.000000      1.000000
 -0.050716  0.000000  0.000000      1.000000
 -0.025358  0.000000  0.000000      1.000000
  0.000000  0.029304  0.000000      1.000000
  0.025358  0.029304  0.000000      1.000000
  0.050716  0.029304  0.000000      1.000000
  0.076074  0.029304  0.000000      1.000000
 -0.050716  0.029304  0.000000      1.000000
 -0.025358  0.029304  0.000000      1.000000
  0.000000  0.058607  0.000000      1.000000
  0.025358  0.058607  0.000000      1.000000
  0.050716  0.058607  0.000000      1.000000
  0.076074  0.058607  0.000000      1.000000
 -0.050716  0.058607  0.000000      1.000000
 -0.025358  0.058607  0.000000      1.000000
  0.000000  0.087911  0.000000      1.000000
  0.025358  0.087911  0.000000      1.000000
  0.050716  0.087911  0.000000      1.000000
  0.076074  0.087911  0.000000      1.000000
 -0.050716  0.087911  0.000000      1.000000
 -0.025358  0.087911  0.000000      1.000000
  0.000000 -0.058607  0.000000      1.000000
  0.025358 -0.058607  0.000000      1.000000
  0.050716 -0.058607  0.000000      1.000000
  0.076074 -0.058607  0.000000      1.000000
 -0.050716 -0.058607  0.000000      1.000000
 -0.025358 -0.058607  0.000000      1.000000
  0.000000 -0.029304  0.000000      1.000000
  0.025358 -0.029304  0.000000      1.000000
  0.050716 -0.029304  0.000000      1.000000
  0.076074 -0.029304  0.000000      1.000000
 -0.050716 -0.029304  0.000000      1.000000
 -0.025358 -0.029304  0.000000      1.000000
  0.000000  0.000000  0.031038      1.000000
  0.025358  0.000000  0.031038      1.000000
  0.050716  0.000000  0.031038      1.000000
  0.076074  0.000000  0.031038      1.000000
 -0.050716  0.000000  0.031038      1.000000
 -0.025358  0.000000  0.031038      1.000000
  0.000000  0.029304  0.031038      1.000000
  0.025358  0.029304  0.031038      1.000000
  0.050716  0.029304  0.031038      1.000000
  0.076074  0.029304  0.031038      1.000000
 -0.050716  0.029304  0.031038      1.000000
 -0.025358  0.029304  0.031038      1.000000
  0.000000  0.058607  0.031038      1.000000
  0.025358  0.058607  0.031038      1.000000
  0.050716  0.058607  0.031038      1.000000
  0.076074  0.058607  0.031038      1.000000
 -0.050716  0.058607  0.031038      1.000000
 -0.025358  0.058607  0.031038      1.000000
  0.000000  0.087911  0.031038      1.000000
  0.025358  0.087911  0.031038      1.000000
  0.050716  0.087911  0.031038      1.000000
  0.076074  0.087911  0.031038      1.000000
 -0.050716  0.087911  0.031038      1.000000
 -0.025358  0.087911  0.031038      1.000000
  0.000000 -0.058607  0.031038      1.000000
  0.025358 -0.058607  0.031038      1.000000
  0.050716 -0.058607  0.031038      1.000000
  0.076074 -0.058607  0.031038      1.000000
 -0.050716 -0.058607  0.031038      1.000000
 -0.025358 -0.058607  0.031038      1.000000
  0.000000 -0.029304  0.031038      1.000000
  0.025358 -0.029304  0.031038      1.000000
  0.050716 -0.029304  0.031038      1.000000
  0.076074 -0.029304  0.031038      1.000000
 -0.050716 -0.029304  0.031038      1.000000
 -0.025358 -0.029304  0.031038      1.000000
  0.000000  0.000000  0.062076      1.000000
  0.025358  0.000000  0.062076      1.000000
  0.050716  0.000000  0.062076      1.000000
  0.076074  0.000000  0.062076      1.000000
 -0.050716  0.000000  0.062076      1.000000
 -0.025358  0.000000  0.062076      1.000000
  0.000000  0.029304  0.062076      1.000000
  0.025358  0.029304  0.062076      1.000000
  0.050716  0.029304  0.062076      1.000000
  0.076074  0.029304  0.062076      1.000000
 -0.050716  0.029304  0.062076      1.000000
 -0.025358  0.029304  0.062076      1.000000
  0.000000  0.058607  0.062076      1.000000
  0.025358  0.058607  0.062076      1.000000
  0.050716  0.058607  0.062076      1.000000
  0.076074  0.058607  0.062076      1.000000
 -0.050716  0.058607  0.062076      1.000000
 -0.025358  0.058607  0.062076      1.000000
  0.000000  0.087911  0.062076      1.000000
  0.025358  0.087911  0.062076      1.000000
  0.050716  0.087911  0.062076      1.000000
  0.076074  0.087911  0.062076      1.000000
 -0.050716  0.087911  0.062076      1.000000
 -0.025358  0.087911  0.062076      1.000000
  0.000000 -0.058607  0.062076      1.000000
  0.025358 -0.058607  0.062076      1.000000
  0.050716 -0.058607  0.062076      1.000000
  0.076074 -0.058607  0.062076      1.000000
 -0.050716 -0.058607  0.062076      1.000000
 -0.025358 -0.058607  0.062076      1.000000
  0.000000 -0.029304  0.062076      1.000000
  0.025358 -0.029304  0.062076      1.000000
  0.050716 -0.029304  0.062076      1.000000
  0.076074 -0.029304  0.062076      1.000000
 -0.050716 -0.029304  0.062076      1.000000
 -0.025358 -0.029304  0.062076      1.000000
  0.000000  0.000000  0.093113      1.000000
  0.025358  0.000000  0.093113      1.000000
  0.050716  0.000000  0.093113      1.000000
  0.076074  0.000000  0.093113      1.000000
 -0.050716  0.000000  0.093113      1.000000
 -0.025358  0.000000  0.093113      1.000000
  0.000000  0.029304  0.093113      1.000000
  0.025358  0.029304  0.093113      1.000000
  0.050716  0.029304  0.093113      1.000000
  0.076074  0.029304  0.093113      1.000000
 -0.050716  0.029304  0.093113      1.000000
 -0.025358  0.029304  0.093113      1.000000
  0.000000  0.058607  0.093113      1.000000
  0.025358  0.058607  0.093113      1.000000
  0.050716  0.058607  0.093113      1.000000
  0.076074  0.058607  0.093113      1.000000
 -0.050716  0.058607  0.093113      1.000000
 -0.025358  0.058607  0.093113      1.000000
  0.000000  0.087911  0.093113      1.000000
  0.025358  0.087911  0.093113      1.000000
  0.050716  0.087911  0.093113      1.000000
  0.076074  0.087911  0.093113      1.000000
 -0.050716  0.087911  0.093113      1.000000
 -0.025358  0.087911  0.093113      1.000000
  0.000000 -0.058607  0.093113      1.000000
  0.025358 -0.058607  0.093113      1.000000
  0.050716 -0.058607  0.093113      1.000000
  0.076074 -0.058607  0.093113      1.000000
 -0.050716 -0.058607  0.093113      1.000000
 -0.025358 -0.058607  0.093113      1.000000
  0.000000 -0.029304  0.093113      1.000000
  0.025358 -0.029304  0.093113      1.000000
  0.050716 -0.029304  0.093113      1.000000
  0.076074 -0.029304  0.093113      1.000000
 -0.050716 -0.029304  0.093113      1.000000
 -0.025358 -0.029304  0.093113      1.000000
  0.000000  0.000000 -0.062076      1.000000
  0.025358  0.000000 -0.062076      1.000000
  0.050716  0.000000 -0.062076      1.000000
  0.076074  0.000000 -0.062076      1.000000
 -0.050716  0.000000 -0.062076      1.000000
 -0.025358  0.000000 -0.062076      1.000000
  0.000000  0.029304 -0.062076      1.000000
  0.025358  0.029304 -0.062076      1.000000
  0.050716  0.029304 -0.062076      1.000000
  0.076074  0.029304 -0.062076      1.000000
 -0.050716  0.029304 -0.062076      1.000000
 -0.025358  0.029304 -0.062076      1.000000
  0.000000  0.058607 -0.062076      1.000000
  0.025358  0.058607 -0.062076      1.000000
  0.050716  0.058607 -0.062076      1.000000
  0.076074  0.058607 -0.062076      1.000000
 -0.050716  0.058607 -0.062076      1.000000
 -0.025358  0.058607 -0.062076      1.000000
  0.000000  0.087911 -0.062076      1.000000
  0.025358  0.087911 -0.062076      1.000000
  0.050716  0.087911 -0.062076      1.000000
  0.076074  0.087911 -0.062076      1.000000
 -0.050716  0.087911 -0.062076      1.000000
 -0.025358  0.087911 -0.062076      1.000000
  0.000000 -0.058607 -0.062076      1.000000
  0.025358 -0.058607 -0.062076      1.000000
  0.050716 -0.058607 -0.062076      1.000000
  0.076074 -0.058607 -0.062076      1.000000
 -0.050716 -0.058607 -0.062076      1.000000
 -0.025358 -0.058607 -0.062076      1.000000
  0.000000 -0.029304 -0.062076      1.000000
  0.025358 -0.029304 -0.062076      1.000000
  0.050716 -0.029304 -0.062076      1.000000
  0.076074 -0.029304 -0.062076      1.000000
 -0.050716 -0.029304 -0.062076      1.000000
 -0.025358 -0.029304 -0.062076      1.000000
  0.000000  0.000000 -0.031038      1.000000
  0.025358  0.000000 -0.031038      1.000000
  0.050716  0.000000 -0.031038      1.000000
  0.076074  0.000000 -0.031038      1.000000
 -0.050716  0.000000 -0.031038      1.000000
 -0.025358  0.000000 -0.031038      1.000000
  0.000000  0.029304 -0.031038      1.000000
  0.025358  0.029304 -0.031038      1.000000
  0.050716  0.029304 -0.031038      1.000000
  0.076074  0.029304 -0.031038      1.000000
 -0.050716  0.029304 -0.031038      1.000000
 -0.025358  0.029304 -0.031038      1.000000
  0.000000  0.058607 -0.031038      1.000000
  0.025358  0.058607 -0.031038      1.000000
  0.050716  0.058607 -0.031038      1.000000
  0.076074  0.058607 -0.031038      1.000000
 -0.050716  0.058607 -0.031038      1.000000
 -0.025358  0.058607 -0.031038      1.000000
  0.000000  0.087911 -0.031038      1.000000
  0.025358  0.087911 -0.031038      1.000000
  0.050716  0.087911 -0.031038      1.000000
  0.076074  0.087911 -0.031038      1.000000
 -0.050716  0.087911 -0.031038      1.000000
 -0.025358  0.087911 -0.031038      1.000000
  0.000000 -0.058607 -0.031038      1.000000
  0.025358 -0.058607 -0.031038      1.000000
  0.050716 -0.058607 -0.031038      1.000000
  0.076074 -0.058607 -0.031038      1.000000
 -0.050716 -0.058607 -0.031038      1.000000
 -0.025358 -0.058607 -0.031038      1.000000
  0.000000 -0.029304 -0.031038      1.000000
  0.025358 -0.029304 -0.031038      1.000000
  0.050716 -0.029304 -0.031038      1.000000
  0.076074 -0.029304 -0.031038      1.000000
 -0.050716 -0.029304 -0.031038      1.000000
 -0.025358 -0.029304 -0.031038      1.000000
 
 TETIRR: Found   1296 inequivalent tetrahedra from     1296

 ----------------------------------------------------------------------------- 
|                                                                             |
|           W    W    AA    RRRRR   N    N  II  N    N   GGGG   !!!           |
|           W    W   A  A   R    R  NN   N  II  NN   N  G    G  !!!           |
|           W    W  A    A  R    R  N N  N  II  N N  N  G       !!!           |
|           W WW W  AAAAAA  RRRRR   N  N N  II  N  N N  G  GGG   !            |
|           WW  WW  A    A  R   R   N   NN  II  N   NN  G    G                |
|           W    W  A    A  R    R  N    N  II  N    N   GGGG   !!!           |
|                                                                             |
|      The number of bands has been changed from the values supplied          |
|      in the INCAR file. This is a result of running the parallel version.   |
|      The orbitals not found in the WAVECAR file will be initialized with    |
|      random numbers, which is usually adequate. For correlated              |
|      calculations, however, you should redo the groundstate calculation.    |
|      I found NBANDS    =      120  now  NBANDS  =     192                   |
|                                                                             |
 ----------------------------------------------------------------------------- 



--------------------------------------------------------------------------------------------------------




 Dimension of arrays:
   k-points           NKPTS =    216   k-points in BZ     NKDIM =    216   number of bands    NBANDS=    192
   number of dos      NEDOS =   8000   number of ions     NIONS =     16
   non local maximal  LDIM  =      6   non local SUM 2l+1 LMDIM =     18
   total plane-waves  NPLWV = 100800
   max r-space proj   IRMAX =      1   max aug-charges    IRDMAX= 258094
   dimension x,y,z NGX =    50 NGY =   48 NGZ =   42
   dimension x,y,z NGXF=   100 NGYF=   96 NGZF=   84
   support grid    NGXF=   200 NGYF=  192 NGZF=  168
   ions per type =               6   2   8
   NGX,Y,Z   is equivalent  to a cutoff of  12.65, 14.03, 13.00 a.u.
   NGXF,Y,Z  is equivalent  to a cutoff of  25.29, 28.06, 26.01 a.u.

 SYSTEM =  XMoNx                                   
 POSCAR =  unknown system                          

 Startparameter for this run:
   NWRITE =      2    write-flag & timer
   PREC   = accura    normal or accurate (medium, high low for compatibility)
   ISTART =      1    job   : 0-new  1-cont  2-samecut
   ICHARG =      0    charge: 1-file 2-atom 10-const
   ISPIN  =      1    spin polarized calculation?
   LNONCOLLINEAR =      F non collinear calculations
   LSORBIT =      F    spin-orbit coupling
   INIWAV =      1    electr: 0-lowe 1-rand  2-diag
   LASPH  =      T    aspherical Exc in radial PAW
   METAGGA=      F    non-selfconsistent MetaGGA calc.

 Electronic Relaxation 1
   ENCUT  =  550.0 eV  40.42 Ry    6.36 a.u.  12.57 10.88 10.27*2*pi/ulx,y,z
   ENINI  =  550.0     initial cutoff
   ENAUG  =  627.1 eV  augmentation charge cutoff
   NELM   =     60;   NELMIN=  2; NELMDL=  0     # of ELM steps 
   EDIFF  = 0.1E-05   stopping-criterion for ELM
   LREAL  =      F    real-space projection
   NLSPLINE    = F    spline interpolate recip. space projectors
   LCOMPAT=      F    compatible to vasp.4.4
   GGA_COMPAT  = T    GGA compatible to vasp.4.4-vasp.4.6
   LMAXPAW     = -100 max onsite density
   LMAXMIX     =    6 max onsite mixed and CHGCAR
   VOSKOWN=      0    Vosko Wilk Nusair interpolation
   ROPT   =    0.00000   0.00000   0.00000
 Ionic relaxation
   EDIFFG = 0.1E-04   stopping-criterion for IOM
   NSW    =      0    number of steps for IOM
   NBLOCK =      1;   KBLOCK =      1    inner block; outer block 
   IBRION =     -1    ionic relax: 0-MD 1-quasi-New 2-CG
   NFREE  =      0    steps in history (QN), initial steepest desc. (CG)
   ISIF   =      2    stress and relaxation
   IWAVPR =     10    prediction:  0-non 1-charg 2-wave 3-comb
   ISYM   =     -1    0-nonsym 1-usesym 2-fastsym
   LCORR  =      T    Harris-Foulkes like correction to forces

   POTIM  = 0.5000    time-step for ionic-motion
   TEIN   =    0.0    initial temperature
   TEBEG  =    0.0;   TEEND  =   0.0 temperature during run
   SMASS  =  -3.00    Nose mass-parameter (am)
   estimated Nose-frequenzy (Omega)   =  0.10E-29 period in steps =****** mass=  -0.987E-27a.u.
   SCALEE = 1.0000    scale energy and forces
   NPACO  =    256;   APACO  = 16.0  distance and # of slots for P.C.
   PSTRESS=    0.0 pullay stress

  Mass of Ions in am
   POMASS =  65.39 95.94 14.00
  Ionic Valenz
   ZVAL   =  12.00  6.00  5.00
  Atomic Wigner-Seitz radii
   RWIGS  =  -1.00 -1.00 -1.00
  virtual crystal weights 
   VCA    =   1.00  1.00  1.00
   NELECT =     124.0000    total number of electrons
   NUPDOWN=      -1.0000    fix difference up-down

 DOS related values:
   EMIN   = -20.00;   EMAX   = 10.00  energy-range for DOS
   EFERMI =   0.00
   ISMEAR =    -5;   SIGMA  =   0.01  broadening in eV -4-tet -1-fermi 0-gaus

 Electronic relaxation 2 (details)
   IALGO  =     38    algorithm
   LDIAG  =      T    sub-space diagonalisation (order eigenvalues)
   LSUBROT=      F    optimize rotation matrix (better conditioning)
   TURBO    =      0    0=normal 1=particle mesh
   IRESTART =      0    0=no restart 2=restart with 2 vectors
   NREBOOT  =      0    no. of reboots
   NMIN     =      0    reboot dimension
   EREF     =   0.00    reference energy to select bands
   IMIX   =      4    mixing-type and parameters
     AMIX     =   0.40;   BMIX     =  1.00
     AMIX_MAG =   1.60;   BMIX_MAG =  1.00
     AMIN     =   0.10
     WC   =   100.;   INIMIX=   1;  MIXPRE=   1;  MAXMIX= -45

 Intra band minimization:
   WEIMIN = 0.0000     energy-eigenvalue tresh-hold
   EBREAK =  0.13E-08  absolut break condition
   DEPER  =   0.30     relativ break condition  

   TIME   =   0.40     timestep for ELM

  volume/ion in A,a.u.               =      12.55        84.66
  Fermi-wavevector in a.u.,A,eV,Ry     =   1.394252  2.634755 26.448905  1.943940
  Thomas-Fermi vector in A             =   2.517819
 
 Write flags
   LWAVE        =      T    write WAVECAR
   LDOWNSAMPLE  =      F    k-point downsampling of WAVECAR
   LCHARG       =      T    write CHGCAR
   LVTOT        =      T    write LOCPOT, total local potential
   LVHAR        =      F    write LOCPOT, Hartree potential only
   LELF         =      F    write electronic localiz. function (ELF)
   LORBIT       =     11    0 simple, 1 ext, 2 COOP (PROOUT), +10 PAW based schemes


 Dipole corrections
   LMONO  =      F    monopole corrections only (constant potential shift)
   LDIPOL =      F    correct potential (dipole corrections)
   IDIPOL =      0    1-x, 2-y, 3-z, 4-all directions 
   EPSILON=  1.0000000 bulk dielectric constant

 LDA+U is selected, type is set to LDAUTYPE =  2
   angular momentum for each species LDAUL =     2    2    2
   U (eV)           for each species LDAUU =   0.0  0.0  0.0
   J (eV)           for each species LDAUJ =   0.0  0.0  0.0
 Exchange correlation treatment:
   GGA     =    --    GGA type
   LEXCH   =     8    internal setting for exchange type
   VOSKOWN=      0    Vosko Wilk Nusair interpolation
   LHFCALC =     F    Hartree Fock is set to
   LHFONE  =     F    Hartree Fock one center treatment
   AEXX    =    0.0000 exact exchange contribution

 Linear response parameters
   LEPSILON=     F    determine dielectric tensor
   LRPA    =     F    only Hartree local field effects (RPA)
   LNABLA  =     F    use nabla operator in PAW spheres
   LVEL    =     F    velocity operator in full k-point grid
   LINTERFAST=   F  fast interpolation
   KINTER  =     0    interpolate to denser k-point grid
   CSHIFT  =0.1000    complex shift for real part using Kramers Kronig
   OMEGAMAX=  -1.0    maximum frequency
   DEG_THRESHOLD= 0.2000000E-02 threshold for treating states as degnerate
   RTIME   =   -0.100 relaxation time in fs
  (WPLASMAI=    0.000 imaginary part of plasma frequency in eV, 0.658/RTIME)
   DFIELD  = 0.0000000 0.0000000 0.0000000 field for delta impulse in time
 
 Orbital magnetization related:
   ORBITALMAG=     F  switch on orbital magnetization
   LCHIMAG   =     F  perturbation theory with respect to B field
   DQ        =  0.001000  dq finite difference perturbation B field
   LLRAUG    =     F  two centre corrections for induced B field



--------------------------------------------------------------------------------------------------------


 Static calculation
 charge density and potential will be updated during run
 non-spin polarized calculation
 Variant of blocked Davidson
 Davidson routine will perform the subspace rotation
 perform sub-space diagonalisation
    after iterative eigenvector-optimisation
 modified Broyden-mixing scheme, WC =      100.0
 initial mixing is a Kerker type mixing with AMIX =  0.4000 and BMIX =      1.0000
 Hartree-type preconditioning will be used
 using additional bands          130
 reciprocal scheme for non local part
 use partial core corrections
 calculate Harris-corrections to forces 
   (improved forces if not selfconsistent)
 use gradient corrections 
 use of overlap-Matrix (Vanderbilt PP)
 Fermi weights with tetrahedron method with Bloechl corrections


--------------------------------------------------------------------------------------------------------


  energy-cutoff  :      550.00
  volume of cell :      200.73
      direct lattice vectors                 reciprocal lattice vectors
     6.572575759  0.000000000  0.000000000     0.152147352  0.000000000  0.000000000
     0.000000000  5.687585647  0.000000000     0.000000000  0.175821528  0.000000000
     0.000000000  0.000000000  5.369804307     0.000000000  0.000000000  0.186226526

  length of vectors
     6.572575759  5.687585647  5.369804307     0.152147352  0.175821528  0.186226526


 
 old parameters found on file WAVECAR:
  energy-cutoff  :      550.00
  volume of cell :      200.73
      direct lattice vectors                 reciprocal lattice vectors
     6.572575759  0.000000000  0.000000000     0.152147352  0.000000000  0.000000000
     0.000000000  5.687585647  0.000000000     0.000000000  0.175821528  0.000000000
     0.000000000  0.000000000  5.369804307     0.000000000  0.000000000  0.186226526

  length of vectors

 
 k-points in units of 2pi/SCALE and weight: Automatic generation                    
   0.00000000  0.00000000  0.00000000       0.005
   0.02535789  0.00000000  0.00000000       0.005
   0.05071578  0.00000000  0.00000000       0.005
   0.07607368  0.00000000  0.00000000       0.005
  -0.05071578  0.00000000  0.00000000       0.005
  -0.02535789  0.00000000  0.00000000       0.005
   0.00000000  0.02930359  0.00000000       0.005
   0.02535789  0.02930359  0.00000000       0.005
   0.05071578  0.02930359  0.00000000       0.005
   0.07607368  0.02930359  0.00000000       0.005
  -0.05071578  0.02930359  0.00000000       0.005
  -0.02535789  0.02930359  0.00000000       0.005
   0.00000000  0.05860718  0.00000000       0.005
   0.02535789  0.05860718  0.00000000       0.005
   0.05071578  0.05860718  0.00000000       0.005
   0.07607368  0.05860718  0.00000000       0.005
  -0.05071578  0.05860718  0.00000000       0.005
  -0.02535789  0.05860718  0.00000000       0.005
   0.00000000  0.08791076  0.00000000       0.005
   0.02535789  0.08791076  0.00000000       0.005
   0.05071578  0.08791076  0.00000000       0.005
   0.07607368  0.08791076  0.00000000       0.005
  -0.05071578  0.08791076  0.00000000       0.005
  -0.02535789  0.08791076  0.00000000       0.005
   0.00000000 -0.05860718  0.00000000       0.005
   0.02535789 -0.05860718  0.00000000       0.005
   0.05071578 -0.05860718  0.00000000       0.005
   0.07607368 -0.05860718  0.00000000       0.005
  -0.05071578 -0.05860718  0.00000000       0.005
  -0.02535789 -0.05860718  0.00000000       0.005
   0.00000000 -0.02930359  0.00000000       0.005
   0.02535789 -0.02930359  0.00000000       0.005
   0.05071578 -0.02930359  0.00000000       0.005
   0.07607368 -0.02930359  0.00000000       0.005
  -0.05071578 -0.02930359  0.00000000       0.005
  -0.02535789 -0.02930359  0.00000000       0.005
   0.00000000  0.00000000  0.03103775       0.005
   0.02535789  0.00000000  0.03103775       0.005
   0.05071578  0.00000000  0.03103775       0.005
   0.07607368  0.00000000  0.03103775       0.005
  -0.05071578  0.00000000  0.03103775       0.005
  -0.02535789  0.00000000  0.03103775       0.005
   0.00000000  0.02930359  0.03103775       0.005
   0.02535789  0.02930359  0.03103775       0.005
   0.05071578  0.02930359  0.03103775       0.005
   0.07607368  0.02930359  0.03103775       0.005
  -0.05071578  0.02930359  0.03103775       0.005
  -0.02535789  0.02930359  0.03103775       0.005
   0.00000000  0.05860718  0.03103775       0.005
   0.02535789  0.05860718  0.03103775       0.005
   0.05071578  0.05860718  0.03103775       0.005
   0.07607368  0.05860718  0.03103775       0.005
  -0.05071578  0.05860718  0.03103775       0.005
  -0.02535789  0.05860718  0.03103775       0.005
   0.00000000  0.08791076  0.03103775       0.005
   0.02535789  0.08791076  0.03103775       0.005
   0.05071578  0.08791076  0.03103775       0.005
   0.07607368  0.08791076  0.03103775       0.005
  -0.05071578  0.08791076  0.03103775       0.005
  -0.02535789  0.08791076  0.03103775       0.005
   0.00000000 -0.05860718  0.03103775       0.005
   0.02535789 -0.05860718  0.03103775       0.005
   0.05071578 -0.05860718  0.03103775       0.005
   0.07607368 -0.05860718  0.03103775       0.005
  -0.05071578 -0.05860718  0.03103775       0.005
  -0.02535789 -0.05860718  0.03103775       0.005
   0.00000000 -0.02930359  0.03103775       0.005
   0.02535789 -0.02930359  0.03103775       0.005
   0.05071578 -0.02930359  0.03103775       0.005
   0.07607368 -0.02930359  0.03103775       0.005
  -0.05071578 -0.02930359  0.03103775       0.005
  -0.02535789 -0.02930359  0.03103775       0.005
   0.00000000  0.00000000  0.06207551       0.005
   0.02535789  0.00000000  0.06207551       0.005
   0.05071578  0.00000000  0.06207551       0.005
   0.07607368  0.00000000  0.06207551       0.005
  -0.05071578  0.00000000  0.06207551       0.005
  -0.02535789  0.00000000  0.06207551       0.005
   0.00000000  0.02930359  0.06207551       0.005
   0.02535789  0.02930359  0.06207551       0.005
   0.05071578  0.02930359  0.06207551       0.005
   0.07607368  0.02930359  0.06207551       0.005
  -0.05071578  0.02930359  0.06207551       0.005
  -0.02535789  0.02930359  0.06207551       0.005
   0.00000000  0.05860718  0.06207551       0.005
   0.02535789  0.05860718  0.06207551       0.005
   0.05071578  0.05860718  0.06207551       0.005
   0.07607368  0.05860718  0.06207551       0.005
  -0.05071578  0.05860718  0.06207551       0.005
  -0.02535789  0.05860718  0.06207551       0.005
   0.00000000  0.08791076  0.06207551       0.005
   0.02535789  0.08791076  0.06207551       0.005
   0.05071578  0.08791076  0.06207551       0.005
   0.07607368  0.08791076  0.06207551       0.005
  -0.05071578  0.08791076  0.06207551       0.005
  -0.02535789  0.08791076  0.06207551       0.005
   0.00000000 -0.05860718  0.06207551       0.005
   0.02535789 -0.05860718  0.06207551       0.005
   0.05071578 -0.05860718  0.06207551       0.005
   0.07607368 -0.05860718  0.06207551       0.005
  -0.05071578 -0.05860718  0.06207551       0.005
  -0.02535789 -0.05860718  0.06207551       0.005
   0.00000000 -0.02930359  0.06207551       0.005
   0.02535789 -0.02930359  0.06207551       0.005
   0.05071578 -0.02930359  0.06207551       0.005
   0.07607368 -0.02930359  0.06207551       0.005
  -0.05071578 -0.02930359  0.06207551       0.005
  -0.02535789 -0.02930359  0.06207551       0.005
   0.00000000  0.00000000  0.09311326       0.005
   0.02535789  0.00000000  0.09311326       0.005
   0.05071578  0.00000000  0.09311326       0.005
   0.07607368  0.00000000  0.09311326       0.005
  -0.05071578  0.00000000  0.09311326       0.005
  -0.02535789  0.00000000  0.09311326       0.005
   0.00000000  0.02930359  0.09311326       0.005
   0.02535789  0.02930359  0.09311326       0.005
   0.05071578  0.02930359  0.09311326       0.005
   0.07607368  0.02930359  0.09311326       0.005
  -0.05071578  0.02930359  0.09311326       0.005
  -0.02535789  0.02930359  0.09311326       0.005
   0.00000000  0.05860718  0.09311326       0.005
   0.02535789  0.05860718  0.09311326       0.005
   0.05071578  0.05860718  0.09311326       0.005
   0.07607368  0.05860718  0.09311326       0.005
  -0.05071578  0.05860718  0.09311326       0.005
  -0.02535789  0.05860718  0.09311326       0.005
   0.00000000  0.08791076  0.09311326       0.005
   0.02535789  0.08791076  0.09311326       0.005
   0.05071578  0.08791076  0.09311326       0.005
   0.07607368  0.08791076  0.09311326       0.005
  -0.05071578  0.08791076  0.09311326       0.005
  -0.02535789  0.08791076  0.09311326       0.005
   0.00000000 -0.05860718  0.09311326       0.005
   0.02535789 -0.05860718  0.09311326       0.005
   0.05071578 -0.05860718  0.09311326       0.005
   0.07607368 -0.05860718  0.09311326       0.005
  -0.05071578 -0.05860718  0.09311326       0.005
  -0.02535789 -0.05860718  0.09311326       0.005
   0.00000000 -0.02930359  0.09311326       0.005
   0.02535789 -0.02930359  0.09311326       0.005
   0.05071578 -0.02930359  0.09311326       0.005
   0.07607368 -0.02930359  0.09311326       0.005
  -0.05071578 -0.02930359  0.09311326       0.005
  -0.02535789 -0.02930359  0.09311326       0.005
   0.00000000  0.00000000 -0.06207551       0.005
   0.02535789  0.00000000 -0.06207551       0.005
   0.05071578  0.00000000 -0.06207551       0.005
   0.07607368  0.00000000 -0.06207551       0.005
  -0.05071578  0.00000000 -0.06207551       0.005
  -0.02535789  0.00000000 -0.06207551       0.005
   0.00000000  0.02930359 -0.06207551       0.005
   0.02535789  0.02930359 -0.06207551       0.005
   0.05071578  0.02930359 -0.06207551       0.005
   0.07607368  0.02930359 -0.06207551       0.005
  -0.05071578  0.02930359 -0.06207551       0.005
  -0.02535789  0.02930359 -0.06207551       0.005
   0.00000000  0.05860718 -0.06207551       0.005
   0.02535789  0.05860718 -0.06207551       0.005
   0.05071578  0.05860718 -0.06207551       0.005
   0.07607368  0.05860718 -0.06207551       0.005
  -0.05071578  0.05860718 -0.06207551       0.005
  -0.02535789  0.05860718 -0.06207551       0.005
   0.00000000  0.08791076 -0.06207551       0.005
   0.02535789  0.08791076 -0.06207551       0.005
   0.05071578  0.08791076 -0.06207551       0.005
   0.07607368  0.08791076 -0.06207551       0.005
  -0.05071578  0.08791076 -0.06207551       0.005
  -0.02535789  0.08791076 -0.06207551       0.005
   0.00000000 -0.05860718 -0.06207551       0.005
   0.02535789 -0.05860718 -0.06207551       0.005
   0.05071578 -0.05860718 -0.06207551       0.005
   0.07607368 -0.05860718 -0.06207551       0.005
  -0.05071578 -0.05860718 -0.06207551       0.005
  -0.02535789 -0.05860718 -0.06207551       0.005
   0.00000000 -0.02930359 -0.06207551       0.005
   0.02535789 -0.02930359 -0.06207551       0.005
   0.05071578 -0.02930359 -0.06207551       0.005
   0.07607368 -0.02930359 -0.06207551       0.005
  -0.05071578 -0.02930359 -0.06207551       0.005
  -0.02535789 -0.02930359 -0.06207551       0.005
   0.00000000  0.00000000 -0.03103775       0.005
   0.02535789  0.00000000 -0.03103775       0.005
   0.05071578  0.00000000 -0.03103775       0.005
   0.07607368  0.00000000 -0.03103775       0.005
  -0.05071578  0.00000000 -0.03103775       0.005
  -0.02535789  0.00000000 -0.03103775       0.005
   0.00000000  0.02930359 -0.03103775       0.005
   0.02535789  0.02930359 -0.03103775       0.005
   0.05071578  0.02930359 -0.03103775       0.005
   0.07607368  0.02930359 -0.03103775       0.005
  -0.05071578  0.02930359 -0.03103775       0.005
  -0.02535789  0.02930359 -0.03103775       0.005
   0.00000000  0.05860718 -0.03103775       0.005
   0.02535789  0.05860718 -0.03103775       0.005
   0.05071578  0.05860718 -0.03103775       0.005
   0.07607368  0.05860718 -0.03103775       0.005
  -0.05071578  0.05860718 -0.03103775       0.005
  -0.02535789  0.05860718 -0.03103775       0.005
   0.00000000  0.08791076 -0.03103775       0.005
   0.02535789  0.08791076 -0.03103775       0.005
   0.05071578  0.08791076 -0.03103775       0.005
   0.07607368  0.08791076 -0.03103775       0.005
  -0.05071578  0.08791076 -0.03103775       0.005
  -0.02535789  0.08791076 -0.03103775       0.005
   0.00000000 -0.05860718 -0.03103775       0.005
   0.02535789 -0.05860718 -0.03103775       0.005
   0.05071578 -0.05860718 -0.03103775       0.005
   0.07607368 -0.05860718 -0.03103775       0.005
  -0.05071578 -0.05860718 -0.03103775       0.005
  -0.02535789 -0.05860718 -0.03103775       0.005
   0.00000000 -0.02930359 -0.03103775       0.005
   0.02535789 -0.02930359 -0.03103775       0.005
   0.05071578 -0.02930359 -0.03103775       0.005
   0.07607368 -0.02930359 -0.03103775       0.005
  -0.05071578 -0.02930359 -0.03103775       0.005
  -0.02535789 -0.02930359 -0.03103775       0.005
 
 k-points in reciprocal lattice and weights: Automatic generation                    
   0.00000000  0.00000000  0.00000000       0.005
   0.16666667  0.00000000  0.00000000       0.005
   0.33333333  0.00000000  0.00000000       0.005
   0.50000000  0.00000000  0.00000000       0.005
  -0.33333333  0.00000000  0.00000000       0.005
  -0.16666667  0.00000000  0.00000000       0.005
   0.00000000  0.16666667  0.00000000       0.005
   0.16666667  0.16666667  0.00000000       0.005
   0.33333333  0.16666667  0.00000000       0.005
   0.50000000  0.16666667  0.00000000       0.005
  -0.33333333  0.16666667  0.00000000       0.005
  -0.16666667  0.16666667  0.00000000       0.005
   0.00000000  0.33333333  0.00000000       0.005
   0.16666667  0.33333333  0.00000000       0.005
   0.33333333  0.33333333  0.00000000       0.005
   0.50000000  0.33333333  0.00000000       0.005
  -0.33333333  0.33333333  0.00000000       0.005
  -0.16666667  0.33333333  0.00000000       0.005
   0.00000000  0.50000000  0.00000000       0.005
   0.16666667  0.50000000  0.00000000       0.005
   0.33333333  0.50000000  0.00000000       0.005
   0.50000000  0.50000000  0.00000000       0.005
  -0.33333333  0.50000000  0.00000000       0.005
  -0.16666667  0.50000000  0.00000000       0.005
   0.00000000 -0.33333333  0.00000000       0.005
   0.16666667 -0.33333333  0.00000000       0.005
   0.33333333 -0.33333333  0.00000000       0.005
   0.50000000 -0.33333333  0.00000000       0.005
  -0.33333333 -0.33333333  0.00000000       0.005
  -0.16666667 -0.33333333  0.00000000       0.005
   0.00000000 -0.16666667  0.00000000       0.005
   0.16666667 -0.16666667  0.00000000       0.005
   0.33333333 -0.16666667  0.00000000       0.005
   0.50000000 -0.16666667  0.00000000       0.005
  -0.33333333 -0.16666667  0.00000000       0.005
  -0.16666667 -0.16666667  0.00000000       0.005
   0.00000000  0.00000000  0.16666667       0.005
   0.16666667  0.00000000  0.16666667       0.005
   0.33333333  0.00000000  0.16666667       0.005
   0.50000000  0.00000000  0.16666667       0.005
  -0.33333333  0.00000000  0.16666667       0.005
  -0.16666667  0.00000000  0.16666667       0.005
   0.00000000  0.16666667  0.16666667       0.005
   0.16666667  0.16666667  0.16666667       0.005
   0.33333333  0.16666667  0.16666667       0.005
   0.50000000  0.16666667  0.16666667       0.005
  -0.33333333  0.16666667  0.16666667       0.005
  -0.16666667  0.16666667  0.16666667       0.005
   0.00000000  0.33333333  0.16666667       0.005
   0.16666667  0.33333333  0.16666667       0.005
   0.33333333  0.33333333  0.16666667       0.005
   0.50000000  0.33333333  0.16666667       0.005
  -0.33333333  0.33333333  0.16666667       0.005
  -0.16666667  0.33333333  0.16666667       0.005
   0.00000000  0.50000000  0.16666667       0.005
   0.16666667  0.50000000  0.16666667       0.005
   0.33333333  0.50000000  0.16666667       0.005
   0.50000000  0.50000000  0.16666667       0.005
  -0.33333333  0.50000000  0.16666667       0.005
  -0.16666667  0.50000000  0.16666667       0.005
   0.00000000 -0.33333333  0.16666667       0.005
   0.16666667 -0.33333333  0.16666667       0.005
   0.33333333 -0.33333333  0.16666667       0.005
   0.50000000 -0.33333333  0.16666667       0.005
  -0.33333333 -0.33333333  0.16666667       0.005
  -0.16666667 -0.33333333  0.16666667       0.005
   0.00000000 -0.16666667  0.16666667       0.005
   0.16666667 -0.16666667  0.16666667       0.005
   0.33333333 -0.16666667  0.16666667       0.005
   0.50000000 -0.16666667  0.16666667       0.005
  -0.33333333 -0.16666667  0.16666667       0.005
  -0.16666667 -0.16666667  0.16666667       0.005
   0.00000000  0.00000000  0.33333333       0.005
   0.16666667  0.00000000  0.33333333       0.005
   0.33333333  0.00000000  0.33333333       0.005
   0.50000000  0.00000000  0.33333333       0.005
  -0.33333333  0.00000000  0.33333333       0.005
  -0.16666667  0.00000000  0.33333333       0.005
   0.00000000  0.16666667  0.33333333       0.005
   0.16666667  0.16666667  0.33333333       0.005
   0.33333333  0.16666667  0.33333333       0.005
   0.50000000  0.16666667  0.33333333       0.005
  -0.33333333  0.16666667  0.33333333       0.005
  -0.16666667  0.16666667  0.33333333       0.005
   0.00000000  0.33333333  0.33333333       0.005
   0.16666667  0.33333333  0.33333333       0.005
   0.33333333  0.33333333  0.33333333       0.005
   0.50000000  0.33333333  0.33333333       0.005
  -0.33333333  0.33333333  0.33333333       0.005
  -0.16666667  0.33333333  0.33333333       0.005
   0.00000000  0.50000000  0.33333333       0.005
   0.16666667  0.50000000  0.33333333       0.005
   0.33333333  0.50000000  0.33333333       0.005
   0.50000000  0.50000000  0.33333333       0.005
  -0.33333333  0.50000000  0.33333333       0.005
  -0.16666667  0.50000000  0.33333333       0.005
   0.00000000 -0.33333333  0.33333333       0.005
   0.16666667 -0.33333333  0.33333333       0.005
   0.33333333 -0.33333333  0.33333333       0.005
   0.50000000 -0.33333333  0.33333333       0.005
  -0.33333333 -0.33333333  0.33333333       0.005
  -0.16666667 -0.33333333  0.33333333       0.005
   0.00000000 -0.16666667  0.33333333       0.005
   0.16666667 -0.16666667  0.33333333       0.005
   0.33333333 -0.16666667  0.33333333       0.005
   0.50000000 -0.16666667  0.33333333       0.005
  -0.33333333 -0.16666667  0.33333333       0.005
  -0.16666667 -0.16666667  0.33333333       0.005
   0.00000000  0.00000000  0.50000000       0.005
   0.16666667  0.00000000  0.50000000       0.005
   0.33333333  0.00000000  0.50000000       0.005
   0.50000000  0.00000000  0.50000000       0.005
  -0.33333333  0.00000000  0.50000000       0.005
  -0.16666667  0.00000000  0.50000000       0.005
   0.00000000  0.16666667  0.50000000       0.005
   0.16666667  0.16666667  0.50000000       0.005
   0.33333333  0.16666667  0.50000000       0.005
   0.50000000  0.16666667  0.50000000       0.005
  -0.33333333  0.16666667  0.50000000       0.005
  -0.16666667  0.16666667  0.50000000       0.005
   0.00000000  0.33333333  0.50000000       0.005
   0.16666667  0.33333333  0.50000000       0.005
   0.33333333  0.33333333  0.50000000       0.005
   0.50000000  0.33333333  0.50000000       0.005
  -0.33333333  0.33333333  0.50000000       0.005
  -0.16666667  0.33333333  0.50000000       0.005
   0.00000000  0.50000000  0.50000000       0.005
   0.16666667  0.50000000  0.50000000       0.005
   0.33333333  0.50000000  0.50000000       0.005
   0.50000000  0.50000000  0.50000000       0.005
  -0.33333333  0.50000000  0.50000000       0.005
  -0.16666667  0.50000000  0.50000000       0.005
   0.00000000 -0.33333333  0.50000000       0.005
   0.16666667 -0.33333333  0.50000000       0.005
   0.33333333 -0.33333333  0.50000000       0.005
   0.50000000 -0.33333333  0.50000000       0.005
  -0.33333333 -0.33333333  0.50000000       0.005
  -0.16666667 -0.33333333  0.50000000       0.005
   0.00000000 -0.16666667  0.50000000       0.005
   0.16666667 -0.16666667  0.50000000       0.005
   0.33333333 -0.16666667  0.50000000       0.005
   0.50000000 -0.16666667  0.50000000       0.005
  -0.33333333 -0.16666667  0.50000000       0.005
  -0.16666667 -0.16666667  0.50000000       0.005
   0.00000000  0.00000000 -0.33333333       0.005
   0.16666667  0.00000000 -0.33333333       0.005
   0.33333333  0.00000000 -0.33333333       0.005
   0.50000000  0.00000000 -0.33333333       0.005
  -0.33333333  0.00000000 -0.33333333       0.005
  -0.16666667  0.00000000 -0.33333333       0.005
   0.00000000  0.16666667 -0.33333333       0.005
   0.16666667  0.16666667 -0.33333333       0.005
   0.33333333  0.16666667 -0.33333333       0.005
   0.50000000  0.16666667 -0.33333333       0.005
  -0.33333333  0.16666667 -0.33333333       0.005
  -0.16666667  0.16666667 -0.33333333       0.005
   0.00000000  0.33333333 -0.33333333       0.005
   0.16666667  0.33333333 -0.33333333       0.005
   0.33333333  0.33333333 -0.33333333       0.005
   0.50000000  0.33333333 -0.33333333       0.005
  -0.33333333  0.33333333 -0.33333333       0.005
  -0.16666667  0.33333333 -0.33333333       0.005
   0.00000000  0.50000000 -0.33333333       0.005
   0.16666667  0.50000000 -0.33333333       0.005
   0.33333333  0.50000000 -0.33333333       0.005
   0.50000000  0.50000000 -0.33333333       0.005
  -0.33333333  0.50000000 -0.33333333       0.005
  -0.16666667  0.50000000 -0.33333333       0.005
   0.00000000 -0.33333333 -0.33333333       0.005
   0.16666667 -0.33333333 -0.33333333       0.005
   0.33333333 -0.33333333 -0.33333333       0.005
   0.50000000 -0.33333333 -0.33333333       0.005
  -0.33333333 -0.33333333 -0.33333333       0.005
  -0.16666667 -0.33333333 -0.33333333       0.005
   0.00000000 -0.16666667 -0.33333333       0.005
   0.16666667 -0.16666667 -0.33333333       0.005
   0.33333333 -0.16666667 -0.33333333       0.005
   0.50000000 -0.16666667 -0.33333333       0.005
  -0.33333333 -0.16666667 -0.33333333       0.005
  -0.16666667 -0.16666667 -0.33333333       0.005
   0.00000000  0.00000000 -0.16666667       0.005
   0.16666667  0.00000000 -0.16666667       0.005
   0.33333333  0.00000000 -0.16666667       0.005
   0.50000000  0.00000000 -0.16666667       0.005
  -0.33333333  0.00000000 -0.16666667       0.005
  -0.16666667  0.00000000 -0.16666667       0.005
   0.00000000  0.16666667 -0.16666667       0.005
   0.16666667  0.16666667 -0.16666667       0.005
   0.33333333  0.16666667 -0.16666667       0.005
   0.50000000  0.16666667 -0.16666667       0.005
  -0.33333333  0.16666667 -0.16666667       0.005
  -0.16666667  0.16666667 -0.16666667       0.005
   0.00000000  0.33333333 -0.16666667       0.005
   0.16666667  0.33333333 -0.16666667       0.005
   0.33333333  0.33333333 -0.16666667       0.005
   0.50000000  0.33333333 -0.16666667       0.005
  -0.33333333  0.33333333 -0.16666667       0.005
  -0.16666667  0.33333333 -0.16666667       0.005
   0.00000000  0.50000000 -0.16666667       0.005
   0.16666667  0.50000000 -0.16666667       0.005
   0.33333333  0.50000000 -0.16666667       0.005
   0.50000000  0.50000000 -0.16666667       0.005
  -0.33333333  0.50000000 -0.16666667       0.005
  -0.16666667  0.50000000 -0.16666667       0.005
   0.00000000 -0.33333333 -0.16666667       0.005
   0.16666667 -0.33333333 -0.16666667       0.005
   0.33333333 -0.33333333 -0.16666667       0.005
   0.50000000 -0.33333333 -0.16666667       0.005
  -0.33333333 -0.33333333 -0.16666667       0.005
  -0.16666667 -0.33333333 -0.16666667       0.005
   0.00000000 -0.16666667 -0.16666667       0.005
   0.16666667 -0.16666667 -0.16666667       0.005
   0.33333333 -0.16666667 -0.16666667       0.005
   0.50000000 -0.16666667 -0.16666667       0.005
  -0.33333333 -0.16666667 -0.16666667       0.005
  -0.16666667 -0.16666667 -0.16666667       0.005
 
 position of ions in fractional coordinates (direct lattice) 
   0.25149056  0.83207899  0.73103268
   0.24850944  0.16792101  0.23103268
   0.75149056  0.16792101  0.23103268
   0.74850944  0.83207899  0.73103268
   0.00000000  0.33436203  0.72975858
   0.50000000  0.66563794  0.22975858
   0.00000000  0.67024784  0.22926897
   0.50000000  0.32975216  0.72926900
   0.76281176  0.82678765  0.11328053
   0.73718824  0.17321235  0.61328052
   0.26281176  0.17321235  0.61328052
   0.23718824  0.82678765  0.11328053
   0.00000000  0.35678004  0.11268825
   0.50000000  0.64321993  0.61268826
   0.00000000  0.67162295  0.57890779
   0.50000000  0.32837705  0.07890779
 
 position of ions in cartesian coordinates  (Angst):
   1.65294077  4.73252051  3.92550242
   1.63334711  0.95506514  1.24060027
   4.93922865  0.95506514  1.24060027
   4.91963499  4.73252051  3.92550242
   0.00000000  1.90171271  3.91866077
   3.28628788  3.78587277  1.23375862
   0.00000000  3.81209198  1.23112949
   3.28628788  1.87549367  3.91603181
   5.01363809  4.70242555  0.60829429
   4.84522555  0.98516009  3.29319640
   1.72735021  0.98516009  3.29319640
   1.55893767  4.70242555  0.60829429
   0.00000000  2.02921703  0.60511385
   3.28628788  3.65836845  3.29001604
   0.00000000  3.81991304  3.10862153
   3.28628788  1.86767261  0.42371937
 


--------------------------------------------------------------------------------------------------------


 k-point  1 :   0.0000 0.0000 0.0000  plane waves:    5873
 k-point  2 :   0.1667 0.0000 0.0000  plane waves:    5867
 k-point  3 :   0.3333 0.0000 0.0000  plane waves:    5867
 k-point  4 :   0.5000 0.0000 0.0000  plane waves:    5878
 k-point  5 :  -0.3333 0.0000 0.0000  plane waves:    5867
 k-point  6 :  -0.1667 0.0000 0.0000  plane waves:    5867
 k-point  7 :   0.0000 0.1667 0.0000  plane waves:    5864
 k-point  8 :   0.1667 0.1667 0.0000  plane waves:    5880
 k-point  9 :   0.3333 0.1667 0.0000  plane waves:    5870
 k-point 10 :   0.5000 0.1667 0.0000  plane waves:    5874
 k-point 11 :  -0.3333 0.1667 0.0000  plane waves:    5870
 k-point 12 :  -0.1667 0.1667 0.0000  plane waves:    5880
 k-point 13 :   0.0000 0.3333 0.0000  plane waves:    5882
 k-point 14 :   0.1667 0.3333 0.0000  plane waves:    5890
 k-point 15 :   0.3333 0.3333 0.0000  plane waves:    5889
 k-point 16 :   0.5000 0.3333 0.0000  plane waves:    5882
 k-point 17 :  -0.3333 0.3333 0.0000  plane waves:    5889
 k-point 18 :  -0.1667 0.3333 0.0000  plane waves:    5890
 k-point 19 :   0.0000 0.5000 0.0000  plane waves:    5874
 k-point 20 :   0.1667 0.5000 0.0000  plane waves:    5894
 k-point 21 :   0.3333 0.5000 0.0000  plane waves:    5898
 k-point 22 :   0.5000 0.5000 0.0000  plane waves:    5892
 k-point 23 :  -0.3333 0.5000 0.0000  plane waves:    5898
 k-point 24 :  -0.1667 0.5000 0.0000  plane waves:    5894
 k-point 25 :   0.0000-0.3333 0.0000  plane waves:    5882
 k-point 26 :   0.1667-0.3333 0.0000  plane waves:    5890
 k-point 27 :   0.3333-0.3333 0.0000  plane waves:    5889
 k-point 28 :   0.5000-0.3333 0.0000  plane waves:    5882
 k-point 29 :  -0.3333-0.3333 0.0000  plane waves:    5889
 k-point 30 :  -0.1667-0.3333 0.0000  plane waves:    5890
 k-point 31 :   0.0000-0.1667 0.0000  plane waves:    5864
 k-point 32 :   0.1667-0.1667 0.0000  plane waves:    5880
 k-point 33 :   0.3333-0.1667 0.0000  plane waves:    5870
 k-point 34 :   0.5000-0.1667 0.0000  plane waves:    5874
 k-point 35 :  -0.3333-0.1667 0.0000  plane waves:    5870
 k-point 36 :  -0.1667-0.1667 0.0000  plane waves:    5880
 k-point 37 :   0.0000 0.0000 0.1667  plane waves:    5877
 k-point 38 :   0.1667 0.0000 0.1667  plane waves:    5866
 k-point 39 :   0.3333 0.0000 0.1667  plane waves:    5870
 k-point 40 :   0.5000 0.0000 0.1667  plane waves:    5862
 k-point 41 :  -0.3333 0.0000 0.1667  plane waves:    5870
 k-point 42 :  -0.1667 0.0000 0.1667  plane waves:    5866
 k-point 43 :   0.0000 0.1667 0.1667  plane waves:    5896
 k-point 44 :   0.1667 0.1667 0.1667  plane waves:    5884
 k-point 45 :   0.3333 0.1667 0.1667  plane waves:    5870
 k-point 46 :   0.5000 0.1667 0.1667  plane waves:    5864
 k-point 47 :  -0.3333 0.1667 0.1667  plane waves:    5870
 k-point 48 :  -0.1667 0.1667 0.1667  plane waves:    5884
 k-point 49 :   0.0000 0.3333 0.1667  plane waves:    5874
 k-point 50 :   0.1667 0.3333 0.1667  plane waves:    5886
 k-point 51 :   0.3333 0.3333 0.1667  plane waves:    5883
 k-point 52 :   0.5000 0.3333 0.1667  plane waves:    5886
 k-point 53 :  -0.3333 0.3333 0.1667  plane waves:    5883
 k-point 54 :  -0.1667 0.3333 0.1667  plane waves:    5886
 k-point 55 :   0.0000 0.5000 0.1667  plane waves:    5884
 k-point 56 :   0.1667 0.5000 0.1667  plane waves:    5884
 k-point 57 :   0.3333 0.5000 0.1667  plane waves:    5892
 k-point 58 :   0.5000 0.5000 0.1667  plane waves:    5896
 k-point 59 :  -0.3333 0.5000 0.1667  plane waves:    5892
 k-point 60 :  -0.1667 0.5000 0.1667  plane waves:    5884
 k-point 61 :   0.0000-0.3333 0.1667  plane waves:    5874
 k-point 62 :   0.1667-0.3333 0.1667  plane waves:    5886
 k-point 63 :   0.3333-0.3333 0.1667  plane waves:    5883
 k-point 64 :   0.5000-0.3333 0.1667  plane waves:    5886
 k-point 65 :  -0.3333-0.3333 0.1667  plane waves:    5883
 k-point 66 :  -0.1667-0.3333 0.1667  plane waves:    5886
 k-point 67 :   0.0000-0.1667 0.1667  plane waves:    5896
 k-point 68 :   0.1667-0.1667 0.1667  plane waves:    5884
 k-point 69 :   0.3333-0.1667 0.1667  plane waves:    5870
 k-point 70 :   0.5000-0.1667 0.1667  plane waves:    5864
 k-point 71 :  -0.3333-0.1667 0.1667  plane waves:    5870
 k-point 72 :  -0.1667-0.1667 0.1667  plane waves:    5884
 k-point 73 :   0.0000 0.0000 0.3333  plane waves:    5896
 k-point 74 :   0.1667 0.0000 0.3333  plane waves:    5875
 k-point 75 :   0.3333 0.0000 0.3333  plane waves:    5883
 k-point 76 :   0.5000 0.0000 0.3333  plane waves:    5866
 k-point 77 :  -0.3333 0.0000 0.3333  plane waves:    5883
 k-point 78 :  -0.1667 0.0000 0.3333  plane waves:    5875
 k-point 79 :   0.0000 0.1667 0.3333  plane waves:    5881
 k-point 80 :   0.1667 0.1667 0.3333  plane waves:    5875
 k-point 81 :   0.3333 0.1667 0.3333  plane waves:    5875
 k-point 82 :   0.5000 0.1667 0.3333  plane waves:    5866
 k-point 83 :  -0.3333 0.1667 0.3333  plane waves:    5875
 k-point 84 :  -0.1667 0.1667 0.3333  plane waves:    5875
 k-point 85 :   0.0000 0.3333 0.3333  plane waves:    5888
 k-point 86 :   0.1667 0.3333 0.3333  plane waves:    5883
 k-point 87 :   0.3333 0.3333 0.3333  plane waves:    5876
 k-point 88 :   0.5000 0.3333 0.3333  plane waves:    5872
 k-point 89 :  -0.3333 0.3333 0.3333  plane waves:    5876
 k-point 90 :  -0.1667 0.3333 0.3333  plane waves:    5883
 k-point 91 :   0.0000 0.5000 0.3333  plane waves:    5918
 k-point 92 :   0.1667 0.5000 0.3333  plane waves:    5890
 k-point 93 :   0.3333 0.5000 0.3333  plane waves:    5880
 k-point 94 :   0.5000 0.5000 0.3333  plane waves:    5868
 k-point 95 :  -0.3333 0.5000 0.3333  plane waves:    5880
 k-point 96 :  -0.1667 0.5000 0.3333  plane waves:    5890
 k-point 97 :   0.0000-0.3333 0.3333  plane waves:    5888
 k-point 98 :   0.1667-0.3333 0.3333  plane waves:    5883
 k-point 99 :   0.3333-0.3333 0.3333  plane waves:    5876
 k-point ** :   0.5000-0.3333 0.3333  plane waves:    5872
 k-point ** :  -0.3333-0.3333 0.3333  plane waves:    5876
 k-point ** :  -0.1667-0.3333 0.3333  plane waves:    5883
 k-point ** :   0.0000-0.1667 0.3333  plane waves:    5881
 k-point ** :   0.1667-0.1667 0.3333  plane waves:    5875
 k-point ** :   0.3333-0.1667 0.3333  plane waves:    5875
 k-point ** :   0.5000-0.1667 0.3333  plane waves:    5866
 k-point ** :  -0.3333-0.1667 0.3333  plane waves:    5875
 k-point ** :  -0.1667-0.1667 0.3333  plane waves:    5875
 k-point ** :   0.0000 0.0000 0.5000  plane waves:    5912
 k-point ** :   0.1667 0.0000 0.5000  plane waves:    5898
 k-point ** :   0.3333 0.0000 0.5000  plane waves:    5872
 k-point ** :   0.5000 0.0000 0.5000  plane waves:    5872
 k-point ** :  -0.3333 0.0000 0.5000  plane waves:    5872
 k-point ** :  -0.1667 0.0000 0.5000  plane waves:    5898
 k-point ** :   0.0000 0.1667 0.5000  plane waves:    5902
 k-point ** :   0.1667 0.1667 0.5000  plane waves:    5876
 k-point ** :   0.3333 0.1667 0.5000  plane waves:    5872
 k-point ** :   0.5000 0.1667 0.5000  plane waves:    5876
 k-point ** :  -0.3333 0.1667 0.5000  plane waves:    5872
 k-point ** :  -0.1667 0.1667 0.5000  plane waves:    5876
 k-point ** :   0.0000 0.3333 0.5000  plane waves:    5874
 k-point ** :   0.1667 0.3333 0.5000  plane waves:    5886
 k-point ** :   0.3333 0.3333 0.5000  plane waves:    5902
 k-point ** :   0.5000 0.3333 0.5000  plane waves:    5884
 k-point ** :  -0.3333 0.3333 0.5000  plane waves:    5902
 k-point ** :  -0.1667 0.3333 0.5000  plane waves:    5886
 k-point ** :   0.0000 0.5000 0.5000  plane waves:    5908
 k-point ** :   0.1667 0.5000 0.5000  plane waves:    5876
 k-point ** :   0.3333 0.5000 0.5000  plane waves:    5876
[...]
     43      -1.6631      2.00000
     44      -1.3835      2.00000
     45      -1.0865      2.00000
     46      -0.8669      2.00000
     47      -0.6696      2.00000
     48      -0.4572      2.00000
     49      -0.2834      2.00000
     50      -0.0882      2.00000
     51      -0.0330      2.00000
     52       0.0531      2.00000
     53       0.3871      2.00000
     54       0.4608      2.00000
     55       0.6148      2.00000
     56       0.8008      2.00000
     57       1.2451      2.00000
     58       1.2912      2.00000
     59       1.4346      2.00000
     60       1.5218      2.00000
     61       1.7807      2.00000
     62       2.0091      2.00000
     63       4.6703      0.00000
     64       4.8735      0.00000
     65       4.9916      0.00000
     66       5.1727      0.00000
     67       5.3750      0.00000
     68       6.1348      0.00000
     69       6.4678      0.00000
     70       6.7330      0.00000
     71       6.8658      0.00000
     72       6.9182      0.00000
     73       7.2204      0.00000
     74       8.3864      0.00000
     75       8.4926      0.00000
     76       8.9231      0.00000
     77       9.5573      0.00000
     78      10.0413      0.00000
     79      10.4082      0.00000
     80      10.6218      0.00000
     81      10.7047      0.00000
     82      11.0876      0.00000
     83      11.3438      0.00000
     84      11.5281      0.00000
     85      12.0504      0.00000
     86      12.7170      0.00000
     87      12.9170      0.00000
     88      13.1376      0.00000
     89      13.2194      0.00000
     90      13.5089      0.00000
     91      13.7900      0.00000
     92      14.4979      0.00000
     93      14.6235      0.00000
     94      14.7060      0.00000
     95      15.1638      0.00000
     96      15.3044      0.00000
     97      15.5262      0.00000
     98      16.0027      0.00000
     99      16.0677      0.00000
    100      16.3978      0.00000
    101      16.9111      0.00000
    102      17.2716      0.00000
    103      17.7918      0.00000
    104      18.0513      0.00000
    105      18.4446      0.00000
    106      18.7621      0.00000
    107      19.2573      0.00000
    108      19.9082      0.00000
    109      20.3020      0.00000
    110      20.5490      0.00000
    111      20.7847      0.00000
    112      21.0858      0.00000
    113      21.2558      0.00000
    114      21.7667      0.00000
    115      21.8711      0.00000
    116      22.1616      0.00000
    117      22.6696      0.00000
    118      22.9086      0.00000
    119      23.0394      0.00000
    120      23.5178      0.00000
    121      23.7036      0.00000
    122      23.8792      0.00000
    123      24.2168      0.00000
    124      24.4805      0.00000
    125      24.7455      0.00000
    126      25.6151      0.00000
    127      25.8828      0.00000
    128      26.0870      0.00000
    129      26.2865      0.00000
    130      26.3939      0.00000
    131      26.6531      0.00000
    132      26.7364      0.00000
    133      26.9477      0.00000
    134      27.1159      0.00000
    135      27.3629      0.00000
    136      27.4478      0.00000
    137      27.6668      0.00000
    138      28.0812      0.00000
    139      28.1157      0.00000
    140      28.4132      0.00000
    141      28.5896      0.00000
    142      28.6524      0.00000
    143      28.7660      0.00000
    144      28.9024      0.00000
    145      29.1112      0.00000
    146      29.1696      0.00000
    147      29.3435      0.00000
    148      29.5857      0.00000
    149      29.6789      0.00000
    150      30.0105      0.00000
    151      30.1158      0.00000
    152      30.3110      0.00000
    153      30.4974      0.00000
    154      30.6532      0.00000
    155      30.9199      0.00000
    156      31.1048      0.00000
    157      31.5166      0.00000
    158      31.8591      0.00000
    159      32.2454      0.00000
    160      32.6525      0.00000
    161      32.7839      0.00000
    162      33.2308      0.00000
    163      33.3903      0.00000
    164      33.8683      0.00000
    165      34.2837      0.00000
    166      34.3797      0.00000
    167      34.9267      0.00000
    168      35.1370      0.00000
    169      35.3857      0.00000
    170      35.4974      0.00000
    171      35.7872      0.00000
    172      35.8954      0.00000
    173      36.1764      0.00000
    174      36.2889      0.00000
    175      36.5853      0.00000
    176      36.7714      0.00000
    177      37.0798      0.00000
    178      37.4519      0.00000
    179      37.6915      0.00000
    180      37.8652      0.00000
    181      38.1749      0.00000
    182      38.3122      0.00000
    183      38.5759      0.00000
    184      38.7277      0.00000
    185      39.0520      0.00000
    186      39.3477      0.00000
    187      39.4608      0.00000
    188      39.6394      0.00000
    189      39.7328      0.00000
    190      40.2352      0.00000
    191      40.4034      0.00000
    192      40.6770      0.00000


--------------------------------------------------------------------------------------------------------


 soft charge-density along one line, spin component           1
         0         1         2         3         4         5         6         7         8         9
 total charge-density along one line
 
 pseudopotential strength for first ion, spin component:           1
 -9.059   0.000   0.005   0.003  -0.000  -9.466   0.000   0.005
  0.000  -9.044   0.001  -0.004  -0.004   0.000  -9.452   0.001
  0.005   0.001  -9.047  -0.000   0.008   0.005   0.001  -9.455
  0.003  -0.004  -0.000  -9.057   0.001   0.003  -0.004  -0.000
 -0.000  -0.004   0.008   0.001  -9.060  -0.000  -0.003   0.008
 -9.466   0.000   0.005   0.003  -0.000  -9.795   0.000   0.004
  0.000  -9.452   0.001  -0.004  -0.003   0.000  -9.782   0.001
  0.005   0.001  -9.455  -0.000   0.008   0.004   0.001  -9.785
  0.003  -0.004  -0.000  -9.465   0.001   0.002  -0.004  -0.000
 -0.000  -0.003   0.008   0.001  -9.467  -0.000  -0.003   0.007
  0.000  -0.000  -0.001   0.000   0.000   0.000  -0.000  -0.001
  0.000  -0.001  -0.001   0.000   0.000   0.000  -0.001  -0.001
 -0.000   0.001   0.000   0.000   0.001  -0.000   0.001   0.000
  0.000  -0.000  -0.001   0.000  -0.000   0.000  -0.000  -0.001
  0.001   0.000   0.000   0.001   0.000   0.001   0.000   0.000
 -0.000   0.000   0.000  -0.000   0.000  -0.000   0.000   0.000
 -0.000  -0.000   0.001   0.000  -0.000  -0.000  -0.000   0.000
 -0.000  -0.000   0.000   0.000   0.000  -0.000  -0.000   0.000
 total augmentation occupancy for first ion, spin component:           1
  4.258  -0.079   0.134   0.862  -0.066  -2.244   0.076  -0.127  -0.866   0.062   0.008   0.000  -0.128   0.029   0.622   0.021
 -0.079   3.568  -0.026   0.094   0.759   0.076  -1.555   0.024  -0.096  -0.774   0.000   0.003   0.449   0.054   0.037  -0.079
  0.134  -0.026   4.934  -0.125   0.184  -0.127   0.024  -2.905   0.120  -0.181   0.014  -0.003   0.052  -0.772   0.106  -0.008
  0.862   0.094  -0.125   3.640   0.165  -0.866  -0.096   0.120  -1.622  -0.160  -0.012   0.003   0.017   0.124   0.447  -0.003
 -0.066   0.759   0.184   0.165   4.121   0.062  -0.774  -0.181  -0.160  -2.120   0.109  -0.020   0.640  -0.007   0.075  -0.112
 -2.244   0.076  -0.127  -0.866   0.062   2.221  -0.074   0.120   0.866  -0.058  -0.008   0.001   0.123  -0.027  -0.604  -0.024
  0.076  -1.555   0.024  -0.096  -0.774  -0.074   1.537  -0.022   0.097   0.786  -0.000  -0.003  -0.436  -0.051  -0.034   0.089
 -0.127   0.024  -2.905   0.120  -0.181   0.120  -0.022   2.866  -0.115   0.177  -0.015   0.003  -0.050   0.751  -0.102   0.009
 -0.866  -0.096   0.120  -1.622  -0.160   0.866   0.097  -0.115   1.598   0.155   0.012  -0.004  -0.017  -0.118  -0.433   0.004
  0.062  -0.774  -0.181  -0.160  -2.120  -0.058   0.786   0.177   0.155   2.111  -0.108   0.026  -0.623   0.007  -0.071   0.128
  0.008   0.000   0.014  -0.012   0.109  -0.008  -0.000  -0.015   0.012  -0.108   2.703  -0.723   0.003   0.002   0.002  -0.000
  0.000   0.003  -0.003   0.003  -0.020   0.001  -0.003   0.003  -0.004   0.026  -0.723   0.229   0.000   0.001   0.001  -0.000
 -0.128   0.449   0.052   0.017   0.640   0.123  -0.436  -0.050  -0.017  -0.623   0.003   0.000   0.426   0.001  -0.003  -0.087
  0.029   0.054  -0.772   0.124  -0.007  -0.027  -0.051   0.751  -0.118   0.007   0.002   0.001   0.001   0.407   0.001  -0.000
  0.622   0.037   0.106   0.447   0.075  -0.604  -0.034  -0.102  -0.433  -0.071   0.002   0.001  -0.003   0.001   0.392   0.000
  0.021  -0.079  -0.008  -0.003  -0.112  -0.024   0.089   0.009   0.004   0.128  -0.000  -0.000  -0.087  -0.000   0.000   0.021
 -0.004  -0.010   0.132  -0.021   0.001   0.005   0.010  -0.151   0.023  -0.001   0.001  -0.000  -0.000  -0.084  -0.000   0.000
 -0.108  -0.005  -0.018  -0.077  -0.012   0.123   0.006   0.020   0.088   0.013   0.000  -0.000   0.000  -0.000  -0.080  -0.000


------------------------ aborting loop because EDIFF is reached ----------------------------------------


 


 total charge     
 
# of ion       s       p       d       tot
------------------------------------------
    1        0.495   0.493   9.839  10.827
    2        0.495   0.493   9.839  10.827
    3        0.495   0.493   9.839  10.827
    4        0.495   0.493   9.839  10.827
    5        0.492   0.480   9.837  10.809
    6        0.492   0.480   9.837  10.809
    7        0.635   0.749   4.526   5.910
    8        0.635   0.749   4.526   5.910
    9        1.245   2.440   0.000   3.686
   10        1.245   2.440   0.000   3.686
   11        1.245   2.440   0.000   3.686
   12        1.245   2.440   0.000   3.686
   13        1.248   2.439   0.000   3.687
   14        1.248   2.439   0.000   3.687
   15        1.249   2.442   0.000   3.691
   16        1.249   2.442   0.000   3.691
--------------------------------------------------
tot         14.208  23.954  68.082 106.244
 
    CHARGE:  cpu time    0.3869: real time    0.3876
    FORLOC:  cpu time    0.0010: real time    0.0009
    FORNL :  cpu time    3.1945: real time    3.1932
    STRESS:  cpu time   19.1231: real time   19.2280
    FORCOR:  cpu time    0.0460: real time    0.0514
    FORHAR:  cpu time    0.0140: real time    0.0144
    MIXING:  cpu time    0.0150: real time    0.0462
    OFIELD:  cpu time    0.0000: real time    0.0001

  FORCE on cell =-STRESS in cart. coord.  units (eV):
  Direction    XX          YY          ZZ          XY          YZ          ZX
  --------------------------------------------------------------------------------------
  Alpha Z   736.69807   736.69807   736.69807
  Ewald   -3034.44767 -3040.78093 -2899.79854     0.00000     0.00000    -0.00000
  Hartree  1293.57537  1284.39290  1392.61232    -0.00000     0.00002     0.00000
  E(xc)    -662.14806  -662.22741  -662.16990     0.00000    -0.00000    -0.00000
  Local     369.74943   385.32493   135.31166     0.00000    -0.00001    -0.00000
  n-local  -314.08636  -314.17457  -313.83026     0.00000    -0.00000    -0.00000
  augment   265.69843   265.85362   266.35312     0.00000     0.00000     0.00001
  Kinetic  1344.93633  1344.90343  1344.77660     0.00000    -0.00001     0.00000
  Fock        0.00000     0.00000     0.00000     0.00000     0.00000     0.00000
  -------------------------------------------------------------------------------------
  Total      -0.02447    -0.00995    -0.04692     0.00000    -0.00000     0.00001
  in kB      -0.19529    -0.07945    -0.37452     0.00001    -0.00000     0.00006
  external pressure =       -0.22 kB  Pullay stress =        0.00 kB


 VOLUME and BASIS-vectors are now :
 -----------------------------------------------------------------------------
  energy-cutoff  :      550.00
  volume of cell :      200.73
      direct lattice vectors                 reciprocal lattice vectors
     6.572575759  0.000000000  0.000000000     0.152147352  0.000000000  0.000000000
     0.000000000  5.687585647  0.000000000     0.000000000  0.175821528  0.000000000
     0.000000000  0.000000000  5.369804307     0.000000000  0.000000000  0.186226526

  length of vectors
     6.572575759  5.687585647  5.369804307     0.152147352  0.175821528  0.186226526


 FORCES acting on ions
    electron-ion (+dipol)            ewald-force                    non-local-force                 convergence-correction
 -----------------------------------------------------------------------------------------------
   0.247E+01 0.200E+02 -.583E+01   -.241E+01 -.198E+02 0.569E+01   -.556E-01 -.190E+00 0.147E+00   -.314E-03 0.209E-03 -.439E-04
   -.247E+01 -.200E+02 -.583E+01   0.241E+01 0.198E+02 0.569E+01   0.556E-01 0.189E+00 0.147E+00   0.125E-03 -.108E-03 0.410E-03
   0.247E+01 -.200E+02 -.583E+01   -.241E+01 0.198E+02 0.569E+01   -.556E-01 0.189E+00 0.147E+00   -.124E-03 -.109E-03 0.410E-03
   -.247E+01 0.200E+02 -.583E+01   0.241E+01 -.198E+02 0.569E+01   0.556E-01 -.190E+00 0.147E+00   0.314E-03 0.209E-03 -.428E-04
   0.813E-07 -.290E+02 -.394E+01   -.922E-13 0.290E+02 0.389E+01   -.552E-06 0.765E-01 0.450E-01   -.140E-06 0.142E-03 -.607E-03
   -.122E-05 0.290E+02 -.394E+01   0.137E-13 -.290E+02 0.389E+01   -.784E-06 -.764E-01 0.449E-01   0.106E-05 -.404E-03 -.153E-03
   0.409E-06 0.364E+01 0.264E+01   0.106E-13 -.368E+01 -.254E+01   0.793E-07 0.336E-01 -.981E-01   -.454E-06 0.283E-03 0.396E-04
   -.627E-07 -.364E+01 0.264E+01   -.373E-14 0.368E+01 -.254E+01   -.597E-07 -.336E-01 -.981E-01   0.860E-07 -.265E-03 -.248E-04
   -.519E+02 0.353E+02 -.156E+02   0.476E+02 -.329E+02 0.138E+02   0.428E+01 -.243E+01 0.183E+01   0.105E-02 -.534E-03 0.413E-03
   0.519E+02 -.353E+02 -.156E+02   -.476E+02 0.329E+02 0.138E+02   -.428E+01 0.243E+01 0.183E+01   -.437E-03 0.217E-03 0.101E-03
   -.519E+02 -.353E+02 -.156E+02   0.476E+02 0.329E+02 0.138E+02   0.428E+01 0.243E+01 0.183E+01   0.437E-03 0.217E-03 0.101E-03
   0.519E+02 0.353E+02 -.156E+02   -.476E+02 -.329E+02 0.138E+02   -.428E+01 -.243E+01 0.183E+01   -.105E-02 -.535E-03 0.413E-03
   0.115E-06 -.649E+02 -.150E+02   -.143E-13 0.601E+02 0.129E+02   -.241E-08 0.486E+01 0.204E+01   -.149E-06 0.121E-02 0.485E-03
   -.121E-06 0.649E+02 -.150E+02   0.119E-13 -.601E+02 0.129E+02   0.472E-07 -.486E+01 0.204E+01   0.818E-07 -.598E-03 0.156E-03
   0.234E-07 0.635E+01 0.590E+02   0.438E-13 -.643E+01 -.532E+02   0.125E-07 0.831E-01 -.577E+01   -.116E-06 0.455E-04 -.119E-02
   -.636E-07 -.635E+01 0.590E+02   0.119E-13 0.643E+01 -.532E+02   0.817E-07 -.831E-01 -.577E+01   0.511E-07 0.740E-05 -.505E-03
 -----------------------------------------------------------------------------------------------
   -.325E-06 0.130E-04 -.353E+00   0.462E-13 0.711E-13 0.142E-13   -.456E-05 0.108E-04 0.351E+00   0.329E-07 -.167E-04 -.417E-04
 
 
 POSITION                                       TOTAL-FORCE (eV/Angst)
 -----------------------------------------------------------------------------------
      1.65294      4.73252      3.92550         0.000498      0.002434      0.001436
      1.63335      0.95507      1.24060        -0.000511     -0.002443      0.001409
      4.93923      0.95507      1.24060         0.000510     -0.002443      0.001429
      4.91963      4.73252      3.92550        -0.000500      0.002434      0.001416
      0.00000      1.90171      3.91866        -0.000000     -0.002856     -0.001185
      3.28629      3.78587      1.23376        -0.000001      0.002874     -0.001193
      0.00000      3.81209      1.23113         0.000000      0.000538      0.001045
      3.28629      1.87549      3.91603         0.000000     -0.000539      0.001046
      5.01364      4.70243      0.60829        -0.003926      0.000577      0.000376
      4.84523      0.98516      3.29320         0.003874     -0.000548      0.000397
      1.72735      0.98516      3.29320        -0.003873     -0.000549      0.000396
      1.55894      4.70243      0.60829         0.003927      0.000577      0.000377
      0.00000      2.02922      0.60511         0.000000      0.006324     -0.000350
      3.28629      3.65837      3.29002         0.000000     -0.006380     -0.000333
      0.00000      3.81991      3.10862         0.000000     -0.003636     -0.003096
      3.28629      1.86767      0.42372         0.000000      0.003636     -0.003172
 -----------------------------------------------------------------------------------
    total drift:                               -0.000005      0.000007     -0.002042


--------------------------------------------------------------------------------------------------------



  FREE ENERGIE OF THE ION-ELECTRON SYSTEM (eV)
  ---------------------------------------------------
  free  energy   TOTEN  =       -97.74568347 eV

  energy  without entropy=      -97.74568347  energy(sigma->0) =      -97.74568347
 


--------------------------------------------------------------------------------------------------------


    POTLOK:  cpu time    0.3569: real time    0.3872


--------------------------------------------------------------------------------------------------------


 stress matrix after NEB project (eV)
     -0.02447      0.00000      0.00001
      0.00000     -0.00995     -0.00000
      0.00001     -0.00000     -0.04692
  FORCES: max atom, RMS     0.006389    0.003910
  FORCE total and by dimension    0.015641    0.006380
  Stress total and by dimension    0.053847    0.046923
 writing wavefunctions
     LOOP+:  cpu time  170.9590: real time  299.7514
    4ORBIT:  cpu time    0.0000: real time    0.0000
 


 total charge     
 
# of ion       s       p       d       tot
------------------------------------------
    1        0.495   0.493   9.839  10.827
    2        0.495   0.493   9.839  10.827
    3        0.495   0.493   9.839  10.827
    4        0.495   0.493   9.839  10.827
    5        0.492   0.480   9.837  10.809
    6        0.492   0.480   9.837  10.809
    7        0.635   0.749   4.526   5.910
    8        0.635   0.749   4.526   5.910
    9        1.245   2.440   0.000   3.686
   10        1.245   2.440   0.000   3.686
   11        1.245   2.440   0.000   3.686
   12        1.245   2.440   0.000   3.686
   13        1.248   2.439   0.000   3.687
   14        1.248   2.439   0.000   3.687
   15        1.249   2.442   0.000   3.691
   16        1.249   2.442   0.000   3.691
--------------------------------------------------
tot         14.208  23.954  68.082 106.244
 
 BZINTS: Fermi energy:  2.341543;124.000000 electrons
         Band energy:-372.342722;  BLOECHL correction:  0.000000

 total amount of memory used by VASP MPI-rank0   637566. kBytes
=======================================================================

   base      :      30000. kBytes
   nonl-proj :     556916. kBytes
   fftplans  :       2151. kBytes
   grid      :       5121. kBytes
   one-center:        248. kBytes
   wavefun   :      43130. kBytes
 
  
  
 General timing and accounting informations for this job:
 ========================================================
  
                  Total CPU time used (sec):      239.314
                            User time (sec):      209.618
                          System time (sec):       29.695
                         Elapsed time (sec):      371.430
  
                   Maximum memory used (kb):      756752.
                   Average memory used (kb):           0.
  
                          Minor page faults:        85032
                          Major page faults:           50
                 Voluntary context switches:        42596
