       N       E                     dE             d eps       ncg     rms          rms(c)
DAV:   1     0.186950445907E+04    0.18695E+04   -0.68413E+04  2464   0.172E+03
DAV:   2     0.167172221372E+03   -0.17023E+04   -0.15802E+04  2672   0.465E+02
DAV:   3    -0.149252705231E+03   -0.31642E+03   -0.30081E+03  2952   0.226E+02
DAV:   4    -0.175280881090E+03   -0.26028E+02   -0.24217E+02  3400   0.631E+01
DAV:   5    -0.176771990697E+03   -0.14911E+01   -0.14123E+01  3528   0.135E+01    0.609E+01
DAV:   6    -0.233040029926E+03   -0.56268E+02   -0.35270E+02  3376   0.161E+02    0.137E+02
DAV:   7    -0.143943069640E+03    0.89097E+02   -0.10929E+02  3688   0.149E+02    0.256E+01
DAV:   8    -0.143518744853E+03    0.42432E+00   -0.53614E+01  3888   0.561E+01    0.132E+01
DAV:   9    -0.143641424866E+03   -0.12268E+00   -0.47062E+00  3416   0.147E+01    0.702E+00
DAV:  10    -0.144030479963E+03   -0.38906E+00   -0.30586E+00  3360   0.780E+00    0.344E+00
DAV:  11    -0.144061707589E+03   -0.31228E-01   -0.40116E-01  2928   0.376E+00    0.286E+00
DAV:  12    -0.144088557297E+03   -0.26850E-01   -0.25520E-01  3392   0.238E+00    0.191E+00
DAV:  13    -0.144117031610E+03   -0.28474E-01   -0.50325E-02  3288   0.118E+00    0.106E+00
DAV:  14    -0.144117833788E+03   -0.80218E-03   -0.29458E-02  3376   0.934E-01    0.522E-01
DAV:  15    -0.144121065450E+03   -0.32317E-02   -0.92835E-03  3368   0.461E-01    0.359E-01
DAV:  16    -0.144122780445E+03   -0.17150E-02   -0.23477E-03  3328   0.296E-01    0.175E-01
DAV:  17    -0.144123336940E+03   -0.55649E-03   -0.21491E-03  3136   0.259E-01    0.985E-02
DAV:  18    -0.144123507050E+03   -0.17011E-03   -0.54408E-04  2728   0.175E-01    0.547E-02
DAV:  19    -0.144123608308E+03   -0.10126E-03   -0.21275E-04  2768   0.140E-01    0.396E-02
DAV:  20    -0.144123642910E+03   -0.34602E-04   -0.57488E-05  2856   0.475E-02    0.309E-02
DAV:  21    -0.144123692455E+03   -0.49545E-04   -0.83037E-05  3432   0.525E-02    0.209E-02
DAV:  22    -0.144123711178E+03   -0.18724E-04   -0.44933E-05  3072   0.432E-02    0.152E-02
DAV:  23    -0.144123718786E+03   -0.76077E-05   -0.25808E-05  2544   0.303E-02    0.794E-03
DAV:  24    -0.144123721604E+03   -0.28178E-05   -0.12302E-05  2416   0.207E-02    0.614E-03
DAV:  25    -0.144123722374E+03   -0.77050E-06   -0.30742E-06  1848   0.146E-02
   1 F= -.14412372E+03 E0= -.14412330E+03  d E =-.852606E-03
