  20  20   1   0
  0.3198447E+02  0.7453987E-09  0.7453123E-09  0.1561083E-08  0.5000000E-15
  1.000000000000000E-004
  CAR 
 unknown system                          
     21.08358606    -21.55117924  301      1.08077534      1.00000000
    -21.551  0.0000E+00  0.0000E+00  0.0000E+00  0.0000E+00
    -21.409  0.0000E+00  0.0000E+00  0.0000E+00  0.0000E+00
    -21.267  0.0000E+00  0.0000E+00  0.0000E+00  0.0000E+00
    -21.125  0.0000E+00  0.0000E+00  0.0000E+00  0.0000E+00
    -20.983  0.0000E+00  0.0000E+00  0.0000E+00  0.0000E+00
    -20.841  0.0000E+00  0.0000E+00  0.0000E+00  0.0000E+00
    -20.698  0.0000E+00  0.0000E+00  0.0000E+00  0.0000E+00
    -20.556  0.0000E+00  0.0000E+00  0.0000E+00  0.0000E+00
    -20.414  0.0000E+00  0.0000E+00  0.0000E+00  0.0000E+00
    -20.272  0.0000E+00  0.0000E+00  0.0000E+00  0.0000E+00
    -20.130  0.0000E+00  0.0000E+00  0.0000E+00  0.0000E+00
    -19.988  0.0000E+00  0.0000E+00  0.0000E+00  0.0000E+00
    -19.846  0.0000E+00  0.0000E+00  0.0000E+00  0.0000E+00
    -19.704  0.0000E+00  0.0000E+00  0.0000E+00  0.0000E+00
    -19.562  0.2815E-01  0.2815E-01  0.4000E-02  0.4000E-02
    -19.419  0.0000E+00  0.0000E+00  0.4000E-02  0.4000E-02
    -19.277  0.0000E+00  0.0000E+00  0.4000E-02  0.4000E-02
    -19.135  0.0000E+00  0.0000E+00  0.4000E-02  0.4000E-02
    -18.993  0.0000E+00  0.0000E+00  0.4000E-02  0.4000E-02
    -18.851  0.0000E+00  0.0000E+00  0.4000E-02  0.4000E-02
    -18.709  0.0000E+00  0.0000E+00  0.4000E-02  0.4000E-02
    -18.567  0.0000E+00  0.0000E+00  0.4000E-02  0.4000E-02
    -18.425  0.0000E+00  0.0000E+00  0.4000E-02  0.4000E-02
    -18.283  0.0000E+00  0.0000E+00  0.4000E-02  0.4000E-02
    -18.140  0.0000E+00  0.0000E+00  0.4000E-02  0.4000E-02
    -17.998  0.0000E+00  0.0000E+00  0.4000E-02  0.4000E-02
    -17.856  0.0000E+00  0.0000E+00  0.4000E-02  0.4000E-02
    -17.714  0.0000E+00  0.0000E+00  0.4000E-02  0.4000E-02
    -17.572  0.0000E+00  0.0000E+00  0.4000E-02  0.4000E-02
    -17.430  0.0000E+00  0.0000E+00  0.4000E-02  0.4000E-02
    -17.288  0.0000E+00  0.0000E+00  0.4000E-02  0.4000E-02
    -17.146  0.0000E+00  0.0000E+00  0.4000E-02  0.4000E-02
    -17.003  0.0000E+00  0.0000E+00  0.4000E-02  0.4000E-02
    -16.861  0.0000E+00  0.0000E+00  0.4000E-02  0.4000E-02
    -16.719  0.0000E+00  0.0000E+00  0.4000E-02  0.4000E-02
    -16.577  0.0000E+00  0.0000E+00  0.4000E-02  0.4000E-02
    -16.435  0.0000E+00  0.0000E+00  0.4000E-02  0.4000E-02
    -16.293  0.0000E+00  0.0000E+00  0.4000E-02  0.4000E-02
    -16.151  0.0000E+00  0.0000E+00  0.4000E-02  0.4000E-02
    -16.009  0.0000E+00  0.0000E+00  0.4000E-02  0.4000E-02
    -15.867  0.0000E+00  0.0000E+00  0.4000E-02  0.4000E-02
    -15.724  0.0000E+00  0.0000E+00  0.4000E-02  0.4000E-02
    -15.582  0.0000E+00  0.0000E+00  0.4000E-02  0.4000E-02
    -15.440  0.0000E+00  0.0000E+00  0.4000E-02  0.4000E-02
    -15.298  0.0000E+00  0.0000E+00  0.4000E-02  0.4000E-02
    -15.156  0.0000E+00  0.0000E+00  0.4000E-02  0.4000E-02
    -15.014  0.0000E+00  0.0000E+00  0.4000E-02  0.4000E-02
    -14.872  0.7531E-12  0.7531E-12  0.4000E-02  0.4000E-02
    -14.730  0.1251E-01  0.1251E-01  0.6000E-02  0.6000E-02
    -14.588  0.0000E+00  0.0000E+00  0.6000E-02  0.6000E-02
    -14.445  0.0000E+00  0.0000E+00  0.6000E-02  0.6000E-02
    -14.303  0.5977E-02  0.5977E-02  0.6849E-02  0.6849E-02
    -14.161  0.2346E-01  0.2346E-01  0.1200E-01  0.1200E-01
    -14.019  0.0000E+00  0.0000E+00  0.1200E-01  0.1200E-01
    -13.877  0.0000E+00  0.0000E+00  0.1200E-01  0.1200E-01
    -13.735  0.0000E+00  0.0000E+00  0.1200E-01  0.1200E-01
    -13.593  0.0000E+00  0.0000E+00  0.1200E-01  0.1200E-01
    -13.451  0.4784E-07  0.4784E-07  0.1200E-01  0.1200E-01
    -13.308  0.1789E-03  0.1789E-03  0.1403E-01  0.1403E-01
    -13.166  0.0000E+00  0.0000E+00  0.1600E-01  0.1600E-01
    -13.024  0.0000E+00  0.0000E+00  0.1600E-01  0.1600E-01
    -12.882  0.0000E+00  0.0000E+00  0.1600E-01  0.1600E-01
    -12.740  0.0000E+00  0.0000E+00  0.1600E-01  0.1600E-01
    -12.598  0.0000E+00  0.0000E+00  0.1600E-01  0.1600E-01
    -12.456  0.0000E+00  0.0000E+00  0.1600E-01  0.1600E-01
    -12.314  0.0000E+00  0.0000E+00  0.1600E-01  0.1600E-01
    -12.172  0.0000E+00  0.0000E+00  0.1600E-01  0.1600E-01
    -12.029  0.0000E+00  0.0000E+00  0.1600E-01  0.1600E-01
    -11.887  0.0000E+00  0.0000E+00  0.1600E-01  0.1600E-01
    -11.745  0.0000E+00  0.0000E+00  0.1600E-01  0.1600E-01
    -11.603  0.0000E+00  0.0000E+00  0.1600E-01  0.1600E-01
    -11.461  0.0000E+00  0.0000E+00  0.1600E-01  0.1600E-01
    -11.319  0.0000E+00  0.0000E+00  0.1600E-01  0.1600E-01
    -11.177  0.0000E+00  0.0000E+00  0.1600E-01  0.1600E-01
    -11.035  0.0000E+00  0.0000E+00  0.1600E-01  0.1600E-01
    -10.892  0.0000E+00  0.0000E+00  0.1600E-01  0.1600E-01
    -10.750  0.0000E+00  0.0000E+00  0.1600E-01  0.1600E-01
    -10.608  0.0000E+00  0.0000E+00  0.1600E-01  0.1600E-01
    -10.466  0.0000E+00  0.0000E+00  0.1600E-01  0.1600E-01
    -10.324  0.0000E+00  0.0000E+00  0.1600E-01  0.1600E-01
    -10.182  0.0000E+00  0.0000E+00  0.1600E-01  0.1600E-01
    -10.040  0.0000E+00  0.0000E+00  0.1600E-01  0.1600E-01
     -9.898  0.0000E+00  0.0000E+00  0.1600E-01  0.1600E-01
     -9.756  0.0000E+00  0.0000E+00  0.1600E-01  0.1600E-01
     -9.613  0.0000E+00  0.0000E+00  0.1600E-01  0.1600E-01
     -9.471  0.0000E+00  0.0000E+00  0.1600E-01  0.1600E-01
     -9.329  0.0000E+00  0.0000E+00  0.1600E-01  0.1600E-01
     -9.187  0.0000E+00  0.0000E+00  0.1600E-01  0.1600E-01
     -9.045  0.0000E+00  0.0000E+00  0.1600E-01  0.1600E-01
     -8.903  0.0000E+00  0.0000E+00  0.1600E-01  0.1600E-01
     -8.761  0.0000E+00  0.0000E+00  0.1600E-01  0.1600E-01
     -8.619  0.0000E+00  0.0000E+00  0.1600E-01  0.1600E-01
     -8.477  0.0000E+00  0.0000E+00  0.1600E-01  0.1600E-01
     -8.334  0.0000E+00  0.0000E+00  0.1600E-01  0.1600E-01
     -8.192  0.0000E+00  0.0000E+00  0.1600E-01  0.1600E-01
     -8.050  0.0000E+00  0.0000E+00  0.1600E-01  0.1600E-01
     -7.908  0.0000E+00  0.0000E+00  0.1600E-01  0.1600E-01
     -7.766  0.0000E+00  0.0000E+00  0.1600E-01  0.1600E-01
     -7.624  0.0000E+00  0.0000E+00  0.1600E-01  0.1600E-01
     -7.482  0.0000E+00  0.0000E+00  0.1600E-01  0.1600E-01
     -7.340  0.0000E+00  0.0000E+00  0.1600E-01  0.1600E-01
     -7.197  0.0000E+00  0.0000E+00  0.1600E-01  0.1600E-01
     -7.055  0.0000E+00  0.0000E+00  0.1600E-01  0.1600E-01
     -6.913  0.0000E+00  0.0000E+00  0.1600E-01  0.1600E-01
     -6.771  0.0000E+00  0.0000E+00  0.1600E-01  0.1600E-01
     -6.629  0.0000E+00  0.0000E+00  0.1600E-01  0.1600E-01
     -6.487  0.0000E+00  0.0000E+00  0.1600E-01  0.1600E-01
     -6.345  0.0000E+00  0.0000E+00  0.1600E-01  0.1600E-01
     -6.203  0.1125E-04  0.1126E-04  0.1600E-01  0.1600E-01
     -6.061  0.2751E-01  0.2751E-01  0.2008E-01  0.2008E-01
     -5.918  0.2674E-01  0.2674E-01  0.2797E-01  0.2797E-01
     -5.776  0.0000E+00  0.0000E+00  0.2800E-01  0.2800E-01
     -5.634  0.0000E+00  0.0000E+00  0.2800E-01  0.2800E-01
     -5.492  0.3442E-03  0.3442E-03  0.2805E-01  0.2805E-01
     -5.350  0.1681E-02  0.1681E-02  0.2929E-01  0.2929E-01
     -5.208  0.1080E-01  0.1080E-01  0.3176E-01  0.3176E-01
     -5.066  0.0000E+00  0.0000E+00  0.3200E-01  0.3200E-01
     -4.924  0.0000E+00  0.0000E+00  0.3200E-01  0.3200E-01
     -4.782  0.0000E+00  0.0000E+00  0.3200E-01  0.3200E-01
     -4.639  0.5454E-04  0.5454E-04  0.3201E-01  0.3201E-01
     -4.497  0.9597E-02  0.9597E-02  0.3342E-01  0.3342E-01
     -4.355  0.0000E+00  0.0000E+00  0.3400E-01  0.3400E-01
     -4.213  0.0000E+00  0.0000E+00  0.3400E-01  0.3400E-01
     -4.071  0.0000E+00  0.0000E+00  0.3400E-01  0.3400E-01
     -3.929  0.0000E+00  0.0000E+00  0.3400E-01  0.3400E-01
     -3.787  0.0000E+00  0.0000E+00  0.3400E-01  0.3400E-01
     -3.645  0.2066E-06  0.2066E-06  0.3400E-01  0.3400E-01
     -3.502  0.2156E-01  0.2156E-01  0.3806E-01  0.3806E-01
     -3.360  0.6170E-02  0.6170E-02  0.4088E-01  0.4088E-01
     -3.218  0.1250E-01  0.1250E-01  0.4267E-01  0.4267E-01
     -3.076  0.5489E-09  0.5489E-09  0.4267E-01  0.4267E-01
     -2.934  0.8144E-03  0.8144E-03  0.4323E-01  0.4323E-01
     -2.792  0.0000E+00  0.0000E+00  0.4400E-01  0.4400E-01
     -2.650  0.1986E-13  0.1986E-13  0.4400E-01  0.4400E-01
     -2.508  0.9290E-02  0.9290E-02  0.4565E-01  0.4565E-01
     -2.366  0.9325E-02  0.9325E-02  0.4721E-01  0.4721E-01
     -2.223  0.3127E-02  0.3127E-02  0.4917E-01  0.4917E-01
     -2.081  0.1570E-02  0.1570E-02  0.4972E-01  0.4972E-01
     -1.939  0.8584E-02  0.8584E-02  0.5178E-01  0.5178E-01
     -1.797  0.2709E-02  0.2709E-02  0.5238E-01  0.5238E-01
     -1.655  0.4676E-02  0.4676E-02  0.5328E-01  0.5328E-01
     -1.513  0.3535E-02  0.3535E-02  0.5467E-01  0.5467E-01
     -1.371  0.7019E-02  0.7019E-02  0.5616E-01  0.5616E-01
     -1.229  0.7990E-02  0.7990E-02  0.5769E-01  0.5769E-01
     -1.086  0.1994E-01  0.1994E-01  0.6089E-01  0.6089E-01
     -0.944  0.4686E-02  0.4686E-02  0.6194E-01  0.6194E-01
     -0.802  0.1467E-01  0.1467E-01  0.6470E-01  0.6470E-01
     -0.660  0.1116E-01  0.1116E-01  0.6820E-01  0.6820E-01
     -0.518  0.2212E-01  0.2212E-01  0.7259E-01  0.7259E-01
     -0.376  0.1239E-01  0.1239E-01  0.7532E-01  0.7532E-01
     -0.234  0.1564E-02  0.1564E-02  0.7600E-01  0.7600E-01
     -0.092  0.1617E-01  0.1617E-01  0.7841E-01  0.7841E-01
      0.050  0.3385E-02  0.3385E-02  0.8004E-01  0.8004E-01
      0.193  0.1549E-02  0.1549E-02  0.8028E-01  0.8028E-01
      0.335  0.3130E-02  0.3130E-02  0.8094E-01  0.8094E-01
      0.477  0.0000E+00  0.0000E+00  0.8106E-01  0.8106E-01
      0.619  0.5002E-04  0.5002E-04  0.8106E-01  0.8106E-01
      0.761  0.0000E+00  0.0000E+00  0.8150E-01  0.8150E-01
      0.903  0.1929E-02  0.1929E-02  0.8177E-01  0.8177E-01
      1.045  0.1564E-02  0.1564E-02  0.8200E-01  0.8200E-01
      1.187  0.0000E+00  0.0000E+00  0.8200E-01  0.8200E-01
      1.329  0.0000E+00  0.0000E+00  0.8200E-01  0.8200E-01
      1.472  0.0000E+00  0.0000E+00  0.8200E-01  0.8200E-01
      1.614  0.0000E+00  0.0000E+00  0.8200E-01  0.8200E-01
      1.756  0.0000E+00  0.0000E+00  0.8200E-01  0.8200E-01
      1.898  0.0000E+00  0.0000E+00  0.8200E-01  0.8200E-01
      2.040  0.1269E-10  0.1269E-10  0.8200E-01  0.8200E-01
      2.182  0.3296E-10  0.3296E-10  0.8289E-01  0.8289E-01
      2.324  0.2351E-02  0.2351E-02  0.8356E-01  0.8356E-01
      2.466  0.0000E+00  0.0000E+00  0.8378E-01  0.8378E-01
      2.609  0.1073E-12  0.1073E-12  0.8378E-01  0.8378E-01
      2.751  0.0000E+00  0.0000E+00  0.8400E-01  0.8400E-01
      2.893  0.0000E+00  0.0000E+00  0.8400E-01  0.8400E-01
      3.035  0.0000E+00  0.0000E+00  0.8400E-01  0.8400E-01
      3.177  0.0000E+00  0.0000E+00  0.8400E-01  0.8400E-01
      3.319  0.0000E+00  0.0000E+00  0.8400E-01  0.8400E-01
      3.461  0.0000E+00  0.0000E+00  0.8400E-01  0.8400E-01
      3.603  0.0000E+00  0.0000E+00  0.8400E-01  0.8400E-01
      3.745  0.0000E+00  0.0000E+00  0.8400E-01  0.8400E-01
      3.888  0.0000E+00  0.0000E+00  0.8400E-01  0.8400E-01
      4.030  0.0000E+00  0.0000E+00  0.8400E-01  0.8400E-01
      4.172  0.0000E+00  0.0000E+00  0.8400E-01  0.8400E-01
      4.314  0.1788E-13  0.1788E-13  0.8400E-01  0.8400E-01
      4.456  0.0000E+00  0.0000E+00  0.8406E-01  0.8406E-01
      4.598  0.0000E+00  0.0000E+00  0.8406E-01  0.8406E-01
      4.740  0.0000E+00  0.0000E+00  0.8406E-01  0.8406E-01
      4.882  0.7818E-03  0.7818E-03  0.8417E-01  0.8417E-01
      5.024  0.3706E-05  0.3706E-05  0.8439E-01  0.8439E-01
      5.167  0.0000E+00  0.0000E+00  0.8461E-01  0.8461E-01
      5.309  0.0000E+00  0.0000E+00  0.8461E-01  0.8461E-01
      5.451  0.0000E+00  0.0000E+00  0.8461E-01  0.8461E-01
      5.593  0.2079E-02  0.2079E-02  0.8491E-01  0.8491E-01
      5.735  0.8282E-03  0.8282E-03  0.8517E-01  0.8517E-01
      5.877  0.7239E-05  0.7239E-05  0.8545E-01  0.8545E-01
      6.019  0.0000E+00  0.0000E+00  0.8567E-01  0.8567E-01
      6.161  0.7818E-03  0.7818E-03  0.8578E-01  0.8578E-01
      6.304  0.7870E-03  0.7870E-03  0.8589E-01  0.8589E-01
      6.446  0.0000E+00  0.0000E+00  0.8600E-01  0.8600E-01
      6.588  0.1257E-02  0.1257E-02  0.8618E-01  0.8618E-01
      6.730  0.2267E-02  0.2267E-02  0.8660E-01  0.8660E-01
      6.872  0.2834E-02  0.2834E-02  0.8724E-01  0.8724E-01
      7.014  0.1670E-02  0.1670E-02  0.8763E-01  0.8763E-01
      7.156  0.1982E-02  0.1982E-02  0.8806E-01  0.8806E-01
      7.298  0.3000E-02  0.3000E-02  0.8887E-01  0.8887E-01
      7.440  0.1342E-02  0.1342E-02  0.8964E-01  0.8964E-01
      7.583  0.3626E-02  0.3626E-02  0.9052E-01  0.9052E-01
      7.725  0.4167E-02  0.4167E-02  0.9115E-01  0.9115E-01
      7.867  0.2794E-02  0.2794E-02  0.9217E-01  0.9217E-01
      8.009  0.5987E-02  0.5987E-02  0.9418E-01  0.9418E-01
      8.151  0.4914E-02  0.4914E-02  0.9570E-01  0.9570E-01
      8.293  0.4647E-02  0.4647E-02  0.9716E-01  0.9716E-01
      8.435  0.7650E-02  0.7650E-02  0.9909E-01  0.9909E-01
      8.577  0.5610E-02  0.5610E-02  0.1005E+00  0.1005E+00
      8.720  0.7447E-02  0.7447E-02  0.1027E+00  0.1027E+00
      8.862  0.4141E-02  0.4141E-02  0.1042E+00  0.1042E+00
      9.004  0.4799E-02  0.4798E-02  0.1053E+00  0.1053E+00
      9.146  0.4925E-02  0.4925E-02  0.1065E+00  0.1065E+00
      9.288  0.9391E-02  0.9391E-02  0.1086E+00  0.1086E+00
      9.430  0.4326E-02  0.4326E-02  0.1097E+00  0.1097E+00
      9.572  0.4386E-02  0.4386E-02  0.1115E+00  0.1115E+00
      9.714  0.1684E-02  0.1684E-02  0.1125E+00  0.1125E+00
      9.856  0.4688E-02  0.4688E-02  0.1136E+00  0.1136E+00
      9.999  0.3347E-02  0.3347E-02  0.1146E+00  0.1146E+00
     10.141  0.1956E-02  0.1956E-02  0.1153E+00  0.1153E+00
     10.283  0.1853E-02  0.1853E-02  0.1159E+00  0.1159E+00
     10.425  0.3909E-02  0.3909E-02  0.1172E+00  0.1172E+00
     10.567  0.6858E-02  0.6858E-02  0.1186E+00  0.1186E+00
     10.709  0.2737E-02  0.2737E-02  0.1199E+00  0.1199E+00
     10.851  0.2963E-02  0.2963E-02  0.1208E+00  0.1208E+00
     10.993  0.3488E-02  0.3488E-02  0.1219E+00  0.1219E+00
     11.135  0.2345E-02  0.2345E-02  0.1228E+00  0.1228E+00
     11.278  0.5036E-02  0.5036E-02  0.1235E+00  0.1235E+00
     11.420  0.3136E-02  0.3136E-02  0.1241E+00  0.1241E+00
     11.562  0.4273E-02  0.4273E-02  0.1258E+00  0.1258E+00
     11.704  0.3910E-02  0.3910E-02  0.1268E+00  0.1268E+00
     11.846  0.4697E-02  0.4697E-02  0.1281E+00  0.1281E+00
     11.988  0.4819E-02  0.4819E-02  0.1291E+00  0.1291E+00
     12.130  0.7504E-02  0.7504E-02  0.1310E+00  0.1310E+00
     12.272  0.4517E-02  0.4517E-02  0.1318E+00  0.1318E+00
     12.415  0.4715E-02  0.4715E-02  0.1330E+00  0.1330E+00
     12.557  0.7127E-02  0.7127E-02  0.1353E+00  0.1353E+00
     12.699  0.3962E-02  0.3962E-02  0.1365E+00  0.1365E+00
     12.841  0.6668E-02  0.6668E-02  0.1380E+00  0.1380E+00
     12.983  0.3835E-02  0.3835E-02  0.1393E+00  0.1393E+00
     13.125  0.4580E-02  0.4580E-02  0.1410E+00  0.1410E+00
     13.267  0.2980E-02  0.2980E-02  0.1420E+00  0.1420E+00
     13.409  0.5341E-02  0.5341E-02  0.1429E+00  0.1429E+00
     13.551  0.8391E-02  0.8390E-02  0.1444E+00  0.1444E+00
     13.694  0.2346E-02  0.2346E-02  0.1452E+00  0.1452E+00
     13.836  0.1173E-02  0.1173E-02  0.1456E+00  0.1456E+00
     13.978  0.6247E-02  0.6247E-02  0.1467E+00  0.1467E+00
     14.120  0.6659E-02  0.6659E-02  0.1481E+00  0.1481E+00
     14.262  0.2021E-02  0.2021E-02  0.1489E+00  0.1489E+00
     14.404  0.4173E-02  0.4173E-02  0.1499E+00  0.1499E+00
     14.546  0.3234E-02  0.3234E-02  0.1504E+00  0.1504E+00
     14.688  0.3631E-02  0.3631E-02  0.1515E+00  0.1515E+00
     14.830  0.5433E-02  0.5433E-02  0.1524E+00  0.1524E+00
     14.973  0.7123E-02  0.7123E-02  0.1540E+00  0.1540E+00
     15.115  0.3955E-02  0.3955E-02  0.1548E+00  0.1548E+00
     15.257  0.3537E-02  0.3537E-02  0.1556E+00  0.1556E+00
     15.399  0.7274E-02  0.7274E-02  0.1569E+00  0.1569E+00
     15.541  0.5862E-02  0.5862E-02  0.1586E+00  0.1586E+00
     15.683  0.3800E-02  0.3800E-02  0.1597E+00  0.1597E+00
     15.825  0.9070E-02  0.9070E-02  0.1615E+00  0.1615E+00
     15.967  0.9198E-02  0.9198E-02  0.1631E+00  0.1631E+00
     16.110  0.7436E-02  0.7436E-02  0.1648E+00  0.1648E+00
     16.252  0.3909E-02  0.3909E-02  0.1658E+00  0.1658E+00
     16.394  0.2706E-02  0.2706E-02  0.1666E+00  0.1666E+00
     16.536  0.8571E-02  0.8571E-02  0.1686E+00  0.1686E+00
     16.678  0.6033E-02  0.6033E-02  0.1699E+00  0.1699E+00
     16.820  0.3206E-02  0.3206E-02  0.1706E+00  0.1706E+00
     16.962  0.1249E-02  0.1249E-02  0.1715E+00  0.1715E+00
     17.104  0.3087E-02  0.3087E-02  0.1728E+00  0.1728E+00
     17.246  0.6292E-02  0.6292E-02  0.1741E+00  0.1741E+00
     17.389  0.4334E-02  0.4334E-02  0.1753E+00  0.1753E+00
     17.531  0.3790E-02  0.3790E-02  0.1767E+00  0.1767E+00
     17.673  0.3138E-02  0.3138E-02  0.1778E+00  0.1778E+00
     17.815  0.3782E-02  0.3782E-02  0.1793E+00  0.1793E+00
     17.957  0.4936E-02  0.4936E-02  0.1806E+00  0.1806E+00
     18.099  0.3019E-02  0.3019E-02  0.1816E+00  0.1816E+00
     18.241  0.1570E-02  0.1570E-02  0.1826E+00  0.1826E+00
     18.383  0.4730E-02  0.4730E-02  0.1851E+00  0.1851E+00
     18.526  0.5845E-02  0.5845E-02  0.1868E+00  0.1868E+00
     18.668  0.7007E-02  0.7007E-02  0.1885E+00  0.1885E+00
     18.810  0.4576E-02  0.4576E-02  0.1897E+00  0.1897E+00
     18.952  0.7149E-02  0.7149E-02  0.1907E+00  0.1907E+00
     19.094  0.3376E-02  0.3376E-02  0.1917E+00  0.1917E+00
     19.236  0.0000E+00  0.0000E+00  0.1920E+00  0.1920E+00
     19.378  0.0000E+00  0.0000E+00  0.1920E+00  0.1920E+00
     19.520  0.0000E+00  0.0000E+00  0.1920E+00  0.1920E+00
     19.662  0.0000E+00  0.0000E+00  0.1920E+00  0.1920E+00
     19.805  0.0000E+00  0.0000E+00  0.1920E+00  0.1920E+00
     19.947  0.0000E+00  0.0000E+00  0.1920E+00  0.1920E+00
     20.089  0.0000E+00  0.0000E+00  0.1920E+00  0.1920E+00
     20.231  0.0000E+00  0.0000E+00  0.1920E+00  0.1920E+00
     20.373  0.0000E+00  0.0000E+00  0.1920E+00  0.1920E+00
     20.515  0.0000E+00  0.0000E+00  0.1920E+00  0.1920E+00
     20.657  0.0000E+00  0.0000E+00  0.1920E+00  0.1920E+00
     20.799  0.0000E+00  0.0000E+00  0.1920E+00  0.1920E+00
     20.941  0.0000E+00  0.0000E+00  0.1920E+00  0.1920E+00
     21.084  0.0000E+00  0.0000E+00  0.1920E+00  0.1920E+00
     21.08358606    -21.55117924  301      1.08077534      1.00000000
    -21.551  0.0000E+00  0.0000E+00  0.0000E+00  0.0000E+00  0.0000E+00  0.0000E+00  0.0000E+00  0.0000E+00  0.0000E+00  0.0000E+00  0.0000E+00  0.0000E+00  0.0000E+00  0.0000E+00  0.0000E+00  0.0000E+00  0.0000E+00  0.0000E+00
    -21.409  0.0000E+00  0.0000E+00  0.0000E+00  0.0000E+00  0.0000E+00  0.0000E+00  0.0000E+00  0.0000E+00  0.0000E+00  0.0000E+00  0.0000E+00  0.0000E+00  0.0000E+00  0.0000E+00  0.0000E+00  0.0000E+00  0.0000E+00  0.0000E+00
    -21.267  0.0000E+00  0.0000E+00  0.0000E+00  0.0000E+00  0.0000E+00  0.0000E+00  0.0000E+00  0.0000E+00  0.0000E+00  0.0000E+00  0.0000E+00  0.0000E+00  0.0000E+00  0.0000E+00  0.0000E+00  0.0000E+00  0.0000E+00  0.0000E+00
    -21.125  0.0000E+00  0.0000E+00  0.0000E+00  0.0000E+00  0.0000E+00  0.0000E+00  0.0000E+00  0.0000E+00  0.0000E+00  0.0000E+00  0.0000E+00  0.0000E+00  0.0000E+00  0.0000E+00  0.0000E+00  0.0000E+00  0.0000E+00  0.0000E+00
    -20.983  0.0000E+00  0.0000E+00  0.0000E+00  0.0000E+00  0.0000E+00  0.0000E+00  0.0000E+00  0.0000E+00  0.0000E+00  0.0000E+00  0.0000E+00  0.0000E+00  0.0000E+00  0.0000E+00  0.0000E+00  0.0000E+00  0.0000E+00  0.0000E+00
    -20.841  0.0000E+00  0.0000E+00  0.0000E+00  0.0000E+00  0.0000E+00  0.0000E+00  0.0000E+00  0.0000E+00  0.0000E+00  0.0000E+00  0.0000E+00  0.0000E+00  0.0000E+00  0.0000E+00  0.0000E+00  0.0000E+00  0.0000E+00  0.0000E+00
    -20.698  0.0000E+00  0.0000E+00  0.0000E+00  0.0000E+00  0.0000E+00  0.0000E+00  0.0000E+00  0.0000E+00  0.0000E+00  0.0000E+00  0.0000E+00  0.0000E+00  0.0000E+00  0.0000E+00  0.0000E+00  0.0000E+00  0.0000E+00  0.0000E+00
    -20.556  0.0000E+00  0.0000E+00  0.0000E+00  0.0000E+00  0.0000E+00  0.0000E+00  0.0000E+00  0.0000E+00  0.0000E+00  0.0000E+00  0.0000E+00  0.0000E+00  0.0000E+00  0.0000E+00  0.0000E+00  0.0000E+00  0.0000E+00  0.0000E+00
    -20.414  0.0000E+00  0.0000E+00  0.0000E+00  0.0000E+00  0.0000E+00  0.0000E+00  0.0000E+00  0.0000E+00  0.0000E+00  0.0000E+00  0.0000E+00  0.0000E+00  0.0000E+00  0.0000E+00  0.0000E+00  0.0000E+00  0.0000E+00  0.0000E+00
    -20.272  0.0000E+00  0.0000E+00  0.0000E+00  0.0000E+00  0.0000E+00  0.0000E+00  0.0000E+00  0.0000E+00  0.0000E+00  0.0000E+00  0.0000E+00  0.0000E+00  0.0000E+00  0.0000E+00  0.0000E+00  0.0000E+00  0.0000E+00  0.0000E+00
    -20.130  0.0000E+00  0.0000E+00  0.0000E+00  0.0000E+00  0.0000E+00  0.0000E+00  0.0000E+00  0.0000E+00  0.0000E+00  0.0000E+00  0.0000E+00  0.0000E+00  0.0000E+00  0.0000E+00  0.0000E+00  0.0000E+00  0.0000E+00  0.0000E+00
    -19.988  0.0000E+00  0.0000E+00  0.0000E+00  0.0000E+00  0.0000E+00  0.0000E+00  0.0000E+00  0.0000E+00  0.0000E+00  0.0000E+00  0.0000E+00  0.0000E+00  0.0000E+00  0.0000E+00  0.0000E+00  0.0000E+00  0.0000E+00  0.0000E+00
    -19.846  0.0000E+00  0.0000E+00  0.0000E+00  0.0000E+00  0.0000E+00  0.0000E+00  0.0000E+00  0.0000E+00  0.0000E+00  0.0000E+00  0.0000E+00  0.0000E+00  0.0000E+00  0.0000E+00  0.0000E+00  0.0000E+00  0.0000E+00  0.0000E+00
    -19.704  0.0000E+00  0.0000E+00  0.0000E+00  0.0000E+00  0.0000E+00  0.0000E+00  0.0000E+00  0.0000E+00  0.0000E+00  0.0000E+00  0.0000E+00  0.0000E+00  0.0000E+00  0.0000E+00  0.0000E+00  0.0000E+00  0.0000E+00  0.0000E+00
    -19.562  0.5972E-03  0.5972E-03  0.2107E-04  0.2107E-04  0.4844E-04  0.4844E-04  0.2110E-04  0.2110E-04  0.0000E+00  0.0000E+00  0.0000E+00  0.0000E+00  0.0000E+00  0.0000E+00  0.0000E+00  0.0000E+00  0.0000E+00  0.0000E+00
    -19.419  0.0000E+00  0.0000E+00  0.0000E+00  0.0000E+00  0.0000E+00  0.0000E+00  0.0000E+00  0.0000E+00  0.0000E+00  0.0000E+00  0.0000E+00  0.0000E+00  0.0000E+00  0.0000E+00  0.0000E+00  0.0000E+00  0.0000E+00  0.0000E+00
    -19.277  0.0000E+00  0.0000E+00  0.0000E+00  0.0000E+00  0.0000E+00  0.0000E+00  0.0000E+00  0.0000E+00  0.0000E+00  0.0000E+00  0.0000E+00  0.0000E+00  0.0000E+00  0.0000E+00  0.0000E+00  0.0000E+00  0.0000E+00  0.0000E+00
    -19.135  0.0000E+00  0.0000E+00  0.0000E+00  0.0000E+00  0.0000E+00  0.0000E+00  0.0000E+00  0.0000E+00  0.0000E+00  0.0000E+00  0.0000E+00  0.0000E+00  0.0000E+00  0.0000E+00  0.0000E+00  0.0000E+00  0.0000E+00  0.0000E+00
    -18.993  0.0000E+00  0.0000E+00  0.0000E+00  0.0000E+00  0.0000E+00  0.0000E+00  0.0000E+00  0.0000E+00  0.0000E+00  0.0000E+00  0.0000E+00  0.0000E+00  0.0000E+00  0.0000E+00  0.0000E+00  0.0000E+00  0.0000E+00  0.0000E+00
    -18.851  0.0000E+00  0.0000E+00  0.0000E+00  0.0000E+00  0.0000E+00  0.0000E+00  0.0000E+00  0.0000E+00  0.0000E+00  0.0000E+00  0.0000E+00  0.0000E+00  0.0000E+00  0.0000E+00  0.0000E+00  0.0000E+00  0.0000E+00  0.0000E+00
    -18.709  0.0000E+00  0.0000E+00  0.0000E+00  0.0000E+00  0.0000E+00  0.0000E+00  0.0000E+00  0.0000E+00  0.0000E+00  0.0000E+00  0.0000E+00  0.0000E+00  0.0000E+00  0.0000E+00  0.0000E+00  0.0000E+00  0.0000E+00  0.0000E+00
    -18.567  0.0000E+00  0.0000E+00  0.0000E+00  0.0000E+00  0.0000E+00  0.0000E+00  0.0000E+00  0.0000E+00  0.0000E+00  0.0000E+00  0.0000E+00  0.0000E+00  0.0000E+00  0.0000E+00  0.0000E+00  0.0000E+00  0.0000E+00  0.0000E+00
    -18.425  0.0000E+00  0.0000E+00  0.0000E+00  0.0000E+00  0.0000E+00  0.0000E+00  0.0000E+00  0.0000E+00  0.0000E+00  0.0000E+00  0.0000E+00  0.0000E+00  0.0000E+00  0.0000E+00  0.0000E+00  0.0000E+00  0.0000E+00  0.0000E+00
    -18.283  0.0000E+00  0.0000E+00  0.0000E+00  0.0000E+00  0.0000E+00  0.0000E+00  0.0000E+00  0.0000E+00  0.0000E+00  0.0000E+00  0.0000E+00  0.0000E+00  0.0000E+00  0.0000E+00  0.0000E+00  0.0000E+00  0.0000E+00  0.0000E+00
    -18.140  0.0000E+00  0.0000E+00  0.0000E+00  0.0000E+00  0.0000E+00  0.0000E+00  0.0000E+00  0.0000E+00  0.0000E+00  0.0000E+00  0.0000E+00  0.0000E+00  0.0000E+00  0.0000E+00  0.0000E+00  0.0000E+00  0.0000E+00  0.0000E+00
    -17.998  0.0000E+00  0.0000E+00  0.0000E+00  0.0000E+00  0.0000E+00  0.0000E+00  0.0000E+00  0.0000E+00  0.0000E+00  0.0000E+00  0.0000E+00  0.0000E+00  0.0000E+00  0.0000E+00  0.0000E+00  0.0000E+00  0.0000E+00  0.0000E+00
    -17.856  0.0000E+00  0.0000E+00  0.0000E+00  0.0000E+00  0.0000E+00  0.0000E+00  0.0000E+00  0.0000E+00  0.0000E+00  0.0000E+00  0.0000E+00  0.0000E+00  0.0000E+00  0.0000E+00  0.0000E+00  0.0000E+00  0.0000E+00  0.0000E+00
    -17.714  0.0000E+00  0.0000E+00  0.0000E+00  0.0000E+00  0.0000E+00  0.0000E+00  0.0000E+00  0.0000E+00  0.0000E+00  0.0000E+00  0.0000E+00  0.0000E+00  0.0000E+00  0.0000E+00  0.0000E+00  0.0000E+00  0.0000E+00  0.0000E+00
    -17.572  0.0000E+00  0.0000E+00  0.0000E+00  0.0000E+00  0.0000E+00  0.0000E+00  0.0000E+00  0.0000E+00  0.0000E+00  0.0000E+00  0.0000E+00  0.0000E+00  0.0000E+00  0.0000E+00  0.0000E+00  0.0000E+00  0.0000E+00  0.0000E+00
    -17.430  0.0000E+00  0.0000E+00  0.0000E+00  0.0000E+00  0.0000E+00  0.0000E+00  0.0000E+00  0.0000E+00  0.0000E+00  0.0000E+00  0.0000E+00  0.0000E+00  0.0000E+00  0.0000E+00  0.0000E+00  0.0000E+00  0.0000E+00  0.0000E+00
    -17.288  0.0000E+00  0.0000E+00  0.0000E+00  0.0000E+00  0.0000E+00  0.0000E+00  0.0000E+00  0.0000E+00  0.0000E+00  0.0000E+00  0.0000E+00  0.0000E+00  0.0000E+00  0.0000E+00  0.0000E+00  0.0000E+00  0.0000E+00  0.0000E+00
    -17.146  0.0000E+00  0.0000E+00  0.0000E+00  0.0000E+00  0.0000E+00  0.0000E+00  0.0000E+00  0.0000E+00  0.0000E+00  0.0000E+00  0.0000E+00  0.0000E+00  0.0000E+00  0.0000E+00  0.0000E+00  0.0000E+00  0.0000E+00  0.0000E+00
    -17.003  0.0000E+00  0.0000E+00  0.0000E+00  0.0000E+00  0.0000E+00  0.0000E+00  0.0000E+00  0.0000E+00  0.0000E+00  0.0000E+00  0.0000E+00  0.0000E+00  0.0000E+00  0.0000E+00  0.0000E+00  0.0000E+00  0.0000E+00  0.0000E+00
    -16.861  0.0000E+00  0.0000E+00  0.0000E+00  0.0000E+00  0.0000E+00  0.0000E+00  0.0000E+00  0.0000E+00  0.0000E+00  0.0000E+00  0.0000E+00  0.0000E+00  0.0000E+00  0.0000E+00  0.0000E+00  0.0000E+00  0.0000E+00  0.0000E+00
    -16.719  0.0000E+00  0.0000E+00  0.0000E+00  0.0000E+00  0.0000E+00  0.0000E+00  0.0000E+00  0.0000E+00  0.0000E+00  0.0000E+00  0.0000E+00  0.0000E+00  0.0000E+00  0.0000E+00  0.0000E+00  0.0000E+00  0.0000E+00  0.0000E+00
    -16.577  0.0000E+00  0.0000E+00  0.0000E+00  0.0000E+00  0.0000E+00  0.0000E+00  0.0000E+00  0.0000E+00  0.0000E+00  0.0000E+00  0.0000E+00  0.0000E+00  0.0000E+00  0.0000E+00  0.0000E+00  0.0000E+00  0.0000E+00  0.0000E+00
    -16.435  0.0000E+00  0.0000E+00  0.0000E+00  0.0000E+00  0.0000E+00  0.0000E+00  0.0000E+00  0.0000E+00  0.0000E+00  0.0000E+00  0.0000E+00  0.0000E+00  0.0000E+00  0.0000E+00  0.0000E+00  0.0000E+00  0.0000E+00  0.0000E+00
    -16.293  0.0000E+00  0.0000E+00  0.0000E+00  0.0000E+00  0.0000E+00  0.0000E+00  0.0000E+00  0.0000E+00  0.0000E+00  0.0000E+00  0.0000E+00  0.0000E+00  0.0000E+00  0.0000E+00  0.0000E+00  0.0000E+00  0.0000E+00  0.0000E+00
    -16.151  0.0000E+00  0.0000E+00  0.0000E+00  0.0000E+00  0.0000E+00  0.0000E+00  0.0000E+00  0.0000E+00  0.0000E+00  0.0000E+00  0.0000E+00  0.0000E+00  0.0000E+00  0.0000E+00  0.0000E+00  0.0000E+00  0.0000E+00  0.0000E+00
    -16.009  0.0000E+00  0.0000E+00  0.0000E+00  0.0000E+00  0.0000E+00  0.0000E+00  0.0000E+00  0.0000E+00  0.0000E+00  0.0000E+00  0.0000E+00  0.0000E+00  0.0000E+00  0.0000E+00  0.0000E+00  0.0000E+00  0.0000E+00  0.0000E+00
    -15.867  0.0000E+00  0.0000E+00  0.0000E+00  0.0000E+00  0.0000E+00  0.0000E+00  0.0000E+00  0.0000E+00  0.0000E+00  0.0000E+00  0.0000E+00  0.0000E+00  0.0000E+00  0.0000E+00  0.0000E+00  0.0000E+00  0.0000E+00  0.0000E+00
    -15.724  0.0000E+00  0.0000E+00  0.0000E+00  0.0000E+00  0.0000E+00  0.0000E+00  0.0000E+00  0.0000E+00  0.0000E+00  0.0000E+00  0.0000E+00  0.0000E+00  0.0000E+00  0.0000E+00  0.0000E+00  0.0000E+00  0.0000E+00  0.0000E+00
    -15.582  0.0000E+00  0.0000E+00  0.0000E+00  0.0000E+00  0.0000E+00  0.0000E+00  0.0000E+00  0.0000E+00  0.0000E+00  0.0000E+00  0.0000E+00  0.0000E+00  0.0000E+00  0.0000E+00  0.0000E+00  0.0000E+00  0.0000E+00  0.0000E+00
    -15.440  0.0000E+00  0.0000E+00  0.0000E+00  0.0000E+00  0.0000E+00  0.0000E+00  0.0000E+00  0.0000E+00  0.0000E+00  0.0000E+00  0.0000E+00  0.0000E+00  0.0000E+00  0.0000E+00  0.0000E+00  0.0000E+00  0.0000E+00  0.0000E+00
    -15.298  0.0000E+00  0.0000E+00  0.0000E+00  0.0000E+00  0.0000E+00  0.0000E+00  0.0000E+00  0.0000E+00  0.0000E+00  0.0000E+00  0.0000E+00  0.0000E+00  0.0000E+00  0.0000E+00  0.0000E+00  0.0000E+00  0.0000E+00  0.0000E+00
    -15.156  0.0000E+00  0.0000E+00  0.0000E+00  0.0000E+00  0.0000E+00  0.0000E+00  0.0000E+00  0.0000E+00  0.0000E+00  0.0000E+00  0.0000E+00  0.0000E+00  0.0000E+00  0.0000E+00  0.0000E+00  0.0000E+00  0.0000E+00  0.0000E+00
    -15.014  0.0000E+00  0.0000E+00  0.0000E+00  0.0000E+00  0.0000E+00  0.0000E+00  0.0000E+00  0.0000E+00  0.0000E+00  0.0000E+00  0.0000E+00  0.0000E+00  0.0000E+00  0.0000E+00  0.0000E+00  0.0000E+00  0.0000E+00  0.0000E+00
    -14.872  0.2778E-10  0.2778E-10  0.9721E-13  0.9721E-13  0.2019E-16  0.2019E-16  0.9658E-13  0.9657E-13  0.0000E+00  0.0000E+00  0.0000E+00  0.0000E+00  0.0000E+00  0.0000E+00  0.0000E+00  0.0000E+00  0.0000E+00  0.0000E+00
    -14.730  0.1158E+01  0.1158E+01  0.4573E-02  0.4573E-02  0.8563E-06  0.8563E-06  0.4550E-02  0.4550E-02  0.0000E+00  0.0000E+00  0.0000E+00  0.0000E+00  0.0000E+00  0.0000E+00  0.0000E+00  0.0000E+00  0.0000E+00  0.0000E+00
    -14.588  0.0000E+00  0.0000E+00  0.0000E+00  0.0000E+00  0.0000E+00  0.0000E+00  0.0000E+00  0.0000E+00  0.0000E+00  0.0000E+00  0.0000E+00  0.0000E+00  0.0000E+00  0.0000E+00  0.0000E+00  0.0000E+00  0.0000E+00  0.0000E+00
    -14.445  0.0000E+00  0.0000E+00  0.0000E+00  0.0000E+00  0.0000E+00  0.0000E+00  0.0000E+00  0.0000E+00  0.0000E+00  0.0000E+00  0.0000E+00  0.0000E+00  0.0000E+00  0.0000E+00  0.0000E+00  0.0000E+00  0.0000E+00  0.0000E+00