       N       E                     dE             d eps       ncg     rms          rms(c)
DAV:   1    -0.473194367879E+03   -0.47319E+03   -0.41775E+00  7680   0.473E+00    0.378E+00
DAV:   2    -0.473182347813E+03    0.12020E-01   -0.18643E-01 15360   0.112E+00    0.232E+00
DAV:   3    -0.473179325417E+03    0.30224E-02   -0.21033E-02  9216   0.369E-01    0.822E-01
DAV:   4    -0.473177602569E+03    0.17228E-02   -0.64237E-03 13824   0.184E-01    0.104E-01
DAV:   5    -0.473177419925E+03    0.18264E-03   -0.36745E-04  9600   0.450E-02    0.523E-02
DAV:   6    -0.473177446506E+03   -0.26581E-04   -0.53537E-05 13824   0.145E-02    0.218E-02
DAV:   7    -0.473177426823E+03    0.19683E-04   -0.16125E-05  9984   0.771E-03    0.723E-03
DAV:   8    -0.473177419667E+03    0.71557E-05   -0.17515E-05 12288   0.457E-03    0.909E-03
DAV:   9    -0.473177415649E+03    0.40181E-05   -0.93658E-06  8448   0.245E-03    0.245E-03
DAV:  10    -0.473177413824E+03    0.18248E-05   -0.80663E-07 14976   0.105E-03    0.222E-03
DAV:  11    -0.473177412938E+03    0.88587E-06   -0.83218E-07  8448   0.794E-04
   1 F= -.47317741E+03 E0= -.47317741E+03  d E =-.473177E+03  mag=    -0.0000
       N       E                     dE             d eps       ncg     rms          rms(c)
DAV:   1    -0.476106316538E+03   -0.29289E+01   -0.70241E+01  7680   0.155E+01    0.110E+01
DAV:   2    -0.473612068246E+03    0.24942E+01   -0.93718E+00  8448   0.644E+00    0.426E+00
DAV:   3    -0.473367986667E+03    0.24408E+00   -0.65642E-01 14592   0.134E+00    0.262E+00
DAV:   4    -0.473329863008E+03    0.38124E-01   -0.12423E-01 10752   0.513E-01    0.137E+00
DAV:   5    -0.473330310131E+03   -0.44712E-03   -0.19038E-02 12288   0.280E-01    0.443E-01
DAV:   6    -0.473331433225E+03   -0.11231E-02   -0.17285E-03 11136   0.818E-02    0.129E-01
DAV:   7    -0.473331945264E+03   -0.51204E-03   -0.43804E-03  9984   0.641E-02    0.170E-01
DAV:   8    -0.473331356046E+03    0.58922E-03   -0.33645E-03  9600   0.463E-02    0.329E-02
DAV:   9    -0.473331324928E+03    0.31118E-04   -0.57918E-05 12096   0.126E-02    0.130E-02
DAV:  10    -0.473331319925E+03    0.50031E-05   -0.15139E-05  9600   0.566E-03    0.973E-03
DAV:  11    -0.473331312296E+03    0.76293E-05   -0.38326E-06 11904   0.299E-03    0.317E-03
DAV:  12    -0.473331306039E+03    0.62564E-05   -0.53979E-07  9600   0.115E-03    0.178E-03
DAV:  13    -0.473331305617E+03    0.42236E-06   -0.59230E-07 11904   0.734E-04
   2 F= -.47333131E+03 E0= -.47333131E+03  d E =-.153893E+00  mag=     0.0000
       N       E                     dE             d eps       ncg     rms          rms(c)
DAV:   1    -0.473410961285E+03   -0.79655E-01   -0.20404E+00  7680   0.266E+00    0.187E+00
DAV:   2    -0.473349032036E+03    0.61929E-01   -0.24171E-01  7680   0.110E+00    0.787E-01
DAV:   3    -0.473341807023E+03    0.72250E-02   -0.16429E-02 15360   0.192E-01    0.505E-01
DAV:   4    -0.473339435417E+03    0.23716E-02   -0.51809E-03 10752   0.934E-02    0.214E-01
DAV:   5    -0.473338872511E+03    0.56291E-03   -0.49953E-04 12288   0.386E-02    0.607E-02
DAV:   6    -0.473338839854E+03    0.32657E-04   -0.80059E-04  8064   0.251E-02    0.549E-02
DAV:   7    -0.473338769109E+03    0.70745E-04   -0.31902E-04  9984   0.139E-02    0.161E-02
DAV:   8    -0.473338796428E+03   -0.27320E-04   -0.56779E-06 13440   0.375E-03    0.480E-03
DAV:   9    -0.473338793476E+03    0.29519E-05   -0.60401E-07  9600   0.187E-03    0.182E-03
DAV:  10    -0.473338793352E+03    0.12472E-06   -0.32570E-07 11136   0.914E-04
   3 F= -.47333879E+03 E0= -.47333879E+03  d E =-.161380E+00  mag=     0.0000
       N       E                     dE             d eps       ncg     rms          rms(c)
DAV:   1    -0.473431057051E+03   -0.92264E-01   -0.40256E+00  7680   0.314E+00    0.190E+00
DAV:   2    -0.473371005077E+03    0.60052E-01   -0.30401E-01 13824   0.128E+00    0.677E-01
DAV:   3    -0.473363887152E+03    0.71179E-02   -0.18069E-02 13056   0.197E-01    0.374E-01
DAV:   4    -0.473363129990E+03    0.75716E-03   -0.47099E-03 13824   0.101E-01    0.210E-01
DAV:   5    -0.473363749054E+03   -0.61906E-03   -0.77869E-04  9216   0.503E-02    0.805E-02
DAV:   6    -0.473364014850E+03   -0.26580E-03   -0.99753E-04  9984   0.347E-02    0.675E-02
DAV:   7    -0.473363949941E+03    0.64909E-04   -0.51523E-04  9216   0.187E-02    0.209E-02
DAV:   8    -0.473363960446E+03   -0.10505E-04   -0.11200E-05 14400   0.537E-03    0.803E-03
DAV:   9    -0.473363971872E+03   -0.11426E-04   -0.29057E-06  8832   0.333E-03    0.432E-03
DAV:  10    -0.473363973675E+03   -0.18028E-05   -0.10880E-06 11520   0.160E-03    0.170E-03
DAV:  11    -0.473363972566E+03    0.11087E-05   -0.12351E-07  7296   0.575E-04    0.999E-04
DAV:  12    -0.473363970304E+03    0.22621E-05   -0.13243E-07 11136   0.358E-04    0.932E-04
DAV:  13    -0.473363969338E+03    0.96673E-06   -0.69440E-08  8064   0.218E-04
   4 F= -.47336397E+03 E0= -.47336397E+03  d E =-.251760E-01  mag=     0.0000
       N       E                     dE             d eps       ncg     rms          rms(c)
DAV:   1    -0.474083023956E+03   -0.71905E+00   -0.36581E+01  7680   0.945E+00    0.569E+00
DAV:   2    -0.473477615379E+03    0.60541E+00   -0.28369E+00 14592   0.387E+00    0.207E+00
DAV:   3    -0.473408906991E+03    0.68708E-01   -0.17115E-01 11520   0.627E-01    0.110E+00
DAV:   4    -0.473398666669E+03    0.10240E-01   -0.41281E-02 13824   0.342E-01    0.680E-01
DAV:   5    -0.473399593711E+03   -0.92704E-03   -0.66524E-03 10752   0.155E-01    0.279E-01
DAV:   6    -0.473400604053E+03   -0.10103E-02   -0.76946E-04 13824   0.563E-02    0.642E-02
DAV:   7    -0.473400709927E+03   -0.10587E-03   -0.36266E-04  9216   0.236E-02    0.535E-02
DAV:   8    -0.473400686566E+03    0.23361E-04   -0.39656E-04 11136   0.169E-02    0.251E-02
DAV:   9    -0.473400703616E+03   -0.17050E-04   -0.31954E-05  8832   0.677E-03    0.748E-03
DAV:  10    -0.473400704154E+03   -0.53779E-06   -0.13409E-06 14208   0.211E-03
   5 F= -.47340070E+03 E0= -.47340070E+03  d E =-.619108E-01  mag=    -0.0000
       N       E                     dE             d eps       ncg     rms          rms(c)
DAV:   1    -0.473425931275E+03   -0.25228E-01   -0.63320E+00  7680   0.313E+00    0.153E+00
DAV:   2    -0.473422436213E+03    0.34951E-02   -0.26986E-01 14976   0.110E+00    0.421E-01
DAV:   3    -0.473420311876E+03    0.21243E-02   -0.93304E-03  9216   0.207E-01    0.242E-01
DAV:   4    -0.473420122876E+03    0.18900E-03   -0.19981E-03 14208   0.717E-02    0.137E-01
DAV:   5    -0.473420306744E+03   -0.18387E-03   -0.30613E-04  9216   0.373E-02    0.763E-02
DAV:   6    -0.473420463609E+03   -0.15687E-03   -0.71956E-04  9216   0.327E-02    0.666E-02
DAV:   7    -0.473420379602E+03    0.84008E-04   -0.51350E-04  7680   0.199E-02    0.162E-02
DAV:   8    -0.473420363772E+03    0.15829E-04   -0.30988E-05 12288   0.744E-03    0.135E-02
DAV:   9    -0.473420346377E+03    0.17395E-04   -0.10756E-05  9984   0.490E-03    0.393E-03
DAV:  10    -0.473420346354E+03    0.23168E-07   -0.37930E-07 13056   0.133E-03
   6 F= -.47342035E+03 E0= -.47342035E+03  d E =-.196422E-01  mag=    -0.0000
       N       E                     dE             d eps       ncg     rms          rms(c)
DAV:   1    -0.473426437132E+03   -0.60908E-02   -0.42368E+00  7680   0.257E+00    0.122E+00
DAV:   2    -0.473424736592E+03    0.17005E-02   -0.18184E-01 14208   0.903E-01    0.341E-01
DAV:   3    -0.473423361406E+03    0.13752E-02   -0.61989E-03  9216   0.170E-01    0.195E-01
DAV:   4    -0.473423244023E+03    0.11738E-03   -0.13541E-03 14592   0.586E-02    0.110E-01
DAV:   5    -0.473423398716E+03   -0.15469E-03   -0.28681E-04  9216   0.332E-02    0.650E-02
DAV:   6    -0.473423573464E+03   -0.17475E-03   -0.11606E-03  8448   0.324E-02    0.817E-02
DAV:   7    -0.473423447684E+03    0.12578E-03   -0.69302E-04  8448   0.217E-02    0.108E-02
DAV:   8    -0.473423425926E+03    0.21758E-04   -0.45900E-06 14592   0.357E-03    0.503E-03
DAV:   9    -0.473423422245E+03    0.36806E-05   -0.17269E-06  8448   0.241E-03    0.329E-03
DAV:  10    -0.473423422151E+03    0.94455E-07   -0.75580E-07 13056   0.130E-03
   7 F= -.47342342E+03 E0= -.47342342E+03  d E =-.227180E-01  mag=     0.0000
       N       E                     dE             d eps       ncg     rms          rms(c)
DAV:   1    -0.473423560779E+03   -0.13853E-03   -0.13822E-01  7680   0.465E-01    0.221E-01
DAV:   2    -0.473423860599E+03   -0.29982E-03   -0.60089E-03 14592   0.165E-01    0.611E-02
DAV:   3    -0.473423736678E+03    0.12392E-03   -0.20096E-04  8832   0.303E-02    0.350E-02
DAV:   4    -0.473423709482E+03    0.27196E-04   -0.10056E-04 10368   0.140E-02    0.263E-02
DAV:   5    -0.473423703403E+03    0.60786E-05   -0.20335E-04  8448   0.128E-02    0.303E-02
DAV:   6    -0.473423677270E+03    0.26133E-04   -0.93694E-05  8448   0.859E-03    0.895E-03
DAV:   7    -0.473423672660E+03    0.46099E-05   -0.22522E-06 14592   0.251E-03    0.231E-03
DAV:   8    -0.473423674133E+03   -0.14729E-05   -0.54521E-07  8832   0.113E-03    0.206E-03
DAV:   9    -0.473423676365E+03   -0.22322E-05   -0.19719E-07 12288   0.673E-04    0.826E-04
DAV:  10    -0.473423676946E+03   -0.58093E-06   -0.25946E-08  7296   0.290E-04
   8 F= -.47342368E+03 E0= -.47342368E+03  d E =-.229728E-01  mag=    -0.0000
       N       E                     dE             d eps       ncg     rms          rms(c)
DAV:   1    -0.473429743341E+03   -0.60670E-02   -0.42423E-01  7680   0.101E+00    0.552E-01
DAV:   2    -0.473424433191E+03    0.53101E-02   -0.27276E-02 12288   0.379E-01    0.225E-01
DAV:   3    -0.473423947671E+03    0.48552E-03   -0.14700E-03 13056   0.577E-02    0.140E-01
DAV:   4    -0.473424039385E+03   -0.91713E-04   -0.58546E-04 13056   0.327E-02    0.661E-02
DAV:   5    -0.473424256329E+03   -0.21694E-03   -0.17826E-04  7680   0.170E-02    0.336E-02
DAV:   6    -0.473424252262E+03    0.40669E-05   -0.19517E-04  8448   0.123E-02    0.132E-02
DAV:   7    -0.473424252887E+03   -0.62502E-06   -0.14964E-05  9984   0.376E-03    0.392E-03
DAV:   8    -0.473424251192E+03    0.16954E-05   -0.51260E-07 13056   0.132E-03    0.194E-03
DAV:   9    -0.473424251893E+03   -0.70116E-06   -0.63805E-07  9984   0.100E-03
   9 F= -.47342425E+03 E0= -.47342425E+03  d E =-.574947E-03  mag=     0.0000
       N       E                     dE             d eps       ncg     rms          rms(c)
DAV:   1    -0.473424407604E+03   -0.15641E-03   -0.10578E-02  8448   0.159E-01    0.872E-02
DAV:   2    -0.473424385228E+03    0.22376E-04   -0.67078E-04 11520   0.596E-02    0.356E-02
DAV:   3    -0.473424349340E+03    0.35889E-04   -0.37421E-05 13824   0.933E-03    0.223E-02
DAV:   4    -0.473424310504E+03    0.38836E-04   -0.28656E-05  7680   0.692E-03    0.145E-02
DAV:   5    -0.473424299187E+03    0.11317E-04   -0.40273E-05  8448   0.553E-03    0.121E-02
DAV:   6    -0.473424275149E+03    0.24039E-04   -0.10541E-05  7680   0.306E-03    0.160E-03
DAV:   7    -0.473424274046E+03    0.11027E-05   -0.26462E-07 15360   0.877E-04    0.131E-03
DAV:   8    -0.473424274102E+03   -0.56429E-07   -0.74044E-08  6912   0.403E-04
  10 F= -.47342427E+03 E0= -.47342427E+03  d E =-.597157E-03  mag=    -0.0000
       N       E                     dE             d eps       ncg     rms          rms(c)
DAV:   1    -0.473426048031E+03   -0.17740E-02   -0.17885E-01  7680   0.617E-01    0.260E-01
DAV:   2    -0.473424988416E+03    0.10596E-02   -0.65484E-03 15360   0.166E-01    0.116E-01
DAV:   3    -0.473424691153E+03    0.29726E-03   -0.49363E-04  8448   0.437E-02    0.603E-02
DAV:   4    -0.473424706687E+03   -0.15534E-04   -0.26389E-04 15360   0.255E-02    0.320E-02
DAV:   5    -0.473424762025E+03   -0.55338E-04   -0.16746E-05  7680   0.939E-03    0.158E-02
DAV:   6    -0.473424827923E+03   -0.65899E-04   -0.53519E-05  8448   0.766E-03    0.182E-02
DAV:   7    -0.473424831694E+03   -0.37706E-05   -0.37437E-05  8448   0.495E-03    0.392E-03
DAV:   8    -0.473424834759E+03   -0.30651E-05   -0.52523E-07 15360   0.113E-03    0.165E-03
DAV:   9    -0.473424838392E+03   -0.36329E-05   -0.12791E-07  6912   0.668E-04    0.105E-03
DAV:  10    -0.473424838363E+03    0.29188E-07   -0.56817E-08 10752   0.349E-04
  11 F= -.47342484E+03 E0= -.47342484E+03  d E =-.564260E-03  mag=     0.0000
       N       E                     dE             d eps       ncg     rms          rms(c)
DAV:   1    -0.473426861143E+03   -0.20228E-02   -0.24798E-01  7680   0.727E-01    0.306E-01
DAV:   2    -0.473425419888E+03    0.14413E-02   -0.90783E-03 15360   0.195E-01    0.137E-01
DAV:   3    -0.473425015224E+03    0.40466E-03   -0.68519E-04  8832   0.514E-02    0.711E-02
DAV:   4    -0.473425021146E+03   -0.59217E-05   -0.36520E-04 15360   0.300E-02    0.377E-02
DAV:   5    -0.473425086630E+03   -0.65484E-04   -0.24431E-05  7680   0.112E-02    0.187E-02
DAV:   6    -0.473425164731E+03   -0.78101E-04   -0.82476E-05  7680   0.934E-03    0.225E-02
DAV:   7    -0.473425168296E+03   -0.35657E-05   -0.56216E-05  7680   0.609E-03    0.454E-03
DAV:   8    -0.473425172005E+03   -0.37087E-05   -0.65540E-07 15360   0.128E-03    0.186E-03
DAV:   9    -0.473425176339E+03   -0.43337E-05   -0.13434E-07  6912   0.719E-04    0.105E-03
DAV:  10    -0.473425176156E+03    0.18280E-06   -0.62408E-08 11904   0.369E-04
  12 F= -.47342518E+03 E0= -.47342518E+03  d E =-.902054E-03  mag=     0.0000
       N       E                     dE             d eps       ncg     rms          rms(c)
DAV:   1    -0.473425551317E+03   -0.37498E-03   -0.50510E-02  7680   0.328E-01    0.138E-01
DAV:   2    -0.473425214208E+03    0.33711E-03   -0.18531E-03 15360   0.881E-02    0.617E-02
DAV:   3    -0.473425120522E+03    0.93686E-04   -0.13955E-04  8064   0.232E-02    0.322E-02
DAV:   4    -0.473425143853E+03   -0.23331E-04   -0.76160E-05 15360   0.138E-02    0.173E-02
DAV:   5    -0.473425172332E+03   -0.28479E-04   -0.12048E-05  7680   0.593E-03    0.104E-02
DAV:   6    -0.473425194662E+03   -0.22330E-04   -0.34557E-05  7680   0.512E-03    0.127E-02
DAV:   7    -0.473425208968E+03   -0.14306E-04   -0.15439E-05  7680   0.332E-03    0.192E-03
DAV:   8    -0.473425210480E+03   -0.15113E-05   -0.98482E-08 13056   0.563E-04    0.988E-04
DAV:   9    -0.473425212394E+03   -0.19149E-05   -0.43424E-08  6912   0.372E-04    0.722E-04
DAV:  10    -0.473425212561E+03   -0.16640E-06   -0.19008E-08  9600   0.202E-04
  13 F= -.47342521E+03 E0= -.47342521E+03  d E =-.938458E-03  mag=     0.0000
       N       E                     dE             d eps       ncg     rms          rms(c)
DAV:   1    -0.473425728281E+03   -0.51589E-03   -0.24051E-01  7680   0.672E-01    0.231E-01
DAV:   2    -0.473425991706E+03   -0.26342E-03   -0.10649E-02 15360   0.228E-01    0.118E-01
DAV:   3    -0.473425757017E+03    0.23469E-03   -0.30785E-04  8064   0.387E-02    0.657E-02
DAV:   4    -0.473425648754E+03    0.10826E-03   -0.15261E-04 15360   0.188E-02    0.335E-02
DAV:   5    -0.473425605353E+03    0.43400E-04   -0.19820E-05  7680   0.953E-03    0.164E-02
DAV:   6    -0.473425600591E+03    0.47620E-05   -0.74237E-05  7680   0.810E-03    0.212E-02
DAV:   7    -0.473425589259E+03    0.11332E-04   -0.48070E-05  7680   0.563E-03    0.316E-03
DAV:   8    -0.473425595366E+03   -0.61070E-05   -0.29620E-07 15360   0.887E-04    0.134E-03
DAV:   9    -0.473425597429E+03   -0.20628E-05   -0.12994E-07  6912   0.654E-04    0.108E-03
DAV:  10    -0.473425597707E+03   -0.27848E-06   -0.61192E-08 11904   0.374E-04
  14 F= -.47342560E+03 E0= -.47342560E+03  d E =-.385146E-03  mag=     0.0000
       N       E                     dE             d eps       ncg     rms          rms(c)
DAV:   1    -0.473425611030E+03   -0.13601E-04   -0.35315E-03  7680   0.814E-02    0.280E-02
DAV:   2    -0.473425643959E+03   -0.32929E-04   -0.15652E-04 15360   0.276E-02    0.142E-02
DAV:   3    -0.473425629395E+03    0.14564E-04   -0.47039E-06  8064   0.483E-03    0.798E-03
DAV:   4    -0.473425620975E+03    0.84198E-05   -0.40302E-06 12288   0.288E-03    0.536E-03
DAV:   5    -0.473425617264E+03    0.37113E-05   -0.68444E-06  7680   0.241E-03    0.530E-03
DAV:   6    -0.473425614729E+03    0.25345E-05   -0.29069E-06  8064   0.148E-03    0.168E-03
DAV:   7    -0.473425613594E+03    0.11355E-05   -0.68517E-08  9216   0.388E-04    0.615E-04
DAV:   8    -0.473425614026E+03   -0.43236E-06   -0.17271E-08  6144   0.216E-04
  15 F= -.47342561E+03 E0= -.47342561E+03  d E =-.401465E-03  mag=     0.0000
       N       E                     dE             d eps       ncg     rms          rms(c)
DAV:   1    -0.473425407512E+03    0.20608E-03   -0.12771E-01  7680   0.472E-01    0.141E-01
DAV:   2    -0.473425824072E+03   -0.41656E-03   -0.45906E-03 14592   0.138E-01    0.644E-02
DAV:   3    -0.473425824588E+03   -0.51583E-06   -0.76758E-05  8448   0.155E-02    0.318E-02
DAV:   4    -0.473425836637E+03   -0.12049E-04   -0.34561E-05 14592   0.102E-02    0.114E-02
DAV:   5    -0.473425837499E+03   -0.86195E-06   -0.23371E-06  8448   0.324E-03
  16 F= -.47342584E+03 E0= -.47342584E+03  d E =-.223473E-03  mag=     0.0000
       N       E                     dE             d eps       ncg     rms          rms(c)
DAV:   1    -0.473425837197E+03   -0.56028E-06   -0.13684E-03  8448   0.492E-02    0.158E-02
DAV:   2    -0.473425839701E+03   -0.25042E-05   -0.61912E-05  9216   0.158E-02    0.111E-02
DAV:   3    -0.473425842471E+03   -0.27694E-05   -0.42883E-05  8448   0.597E-03    0.127E-02
DAV:   4    -0.473425840411E+03    0.20599E-05   -0.18000E-05  7680   0.356E-03    0.334E-03
DAV:   5    -0.473425840675E+03   -0.26450E-06   -0.65026E-07 15360   0.133E-03
  17 F= -.47342584E+03 E0= -.47342584E+03  d E =-.226649E-03  mag=     0.0000
       N       E                     dE             d eps       ncg     rms          rms(c)
DAV:   1    -0.473425859619E+03   -0.19208E-04   -0.88338E-02  7680   0.394E-01    0.868E-02
DAV:   2    -0.473426140375E+03   -0.28076E-03   -0.31181E-03 13824   0.119E-01    0.365E-02
DAV:   3    -0.473426103019E+03    0.37357E-04   -0.45620E-05  9600   0.131E-02    0.225E-02
DAV:   4    -0.473426072550E+03    0.30469E-04   -0.27713E-05 13824   0.815E-03    0.108E-02
DAV:   5    -0.473426058051E+03    0.14499E-04   -0.53466E-06  9216   0.426E-03    0.761E-03
DAV:   6    -0.473426049218E+03    0.88334E-05   -0.39165E-06 12288   0.296E-03    0.389E-03
DAV:   7    -0.473426043971E+03    0.52463E-05   -0.10633E-06  9216   0.156E-03    0.157E-03
DAV:   8    -0.473426043953E+03    0.18532E-07   -0.74410E-07 10752   0.734E-04
  18 F= -.47342604E+03 E0= -.47342604E+03  d E =-.203277E-03  mag=     0.0000
       N       E                     dE             d eps       ncg     rms          rms(c)
DAV:   1    -0.473424603952E+03    0.14400E-02   -0.79519E-01  7680   0.118E+00    0.260E-01
DAV:   2    -0.473426717573E+03   -0.21136E-02   -0.28060E-02 13824   0.357E-01    0.110E-01
DAV:   3    -0.473426518181E+03    0.19939E-03   -0.40798E-04  9600   0.388E-02    0.678E-02
DAV:   4    -0.473426398557E+03    0.11962E-03   -0.24496E-04 13824   0.233E-02    0.305E-02
DAV:   5    -0.473426351236E+03    0.47320E-04   -0.19728E-05  9216   0.867E-03    0.170E-02
DAV:   6    -0.473426331000E+03    0.20236E-04   -0.72562E-05  8448   0.805E-03    0.196E-02
DAV:   7    -0.473426315455E+03    0.15545E-04   -0.48390E-05  7680   0.550E-03    0.360E-03
DAV:   8    -0.473426316598E+03   -0.11433E-05   -0.10334E-06 13824   0.143E-03    0.180E-03
DAV:   9    -0.473426316831E+03   -0.23219E-06   -0.24201E-07  7680   0.782E-04
  19 F= -.47342632E+03 E0= -.47342632E+03  d E =-.476155E-03  mag=     0.0000
       N       E                     dE             d eps       ncg     rms          rms(c)
DAV:   1    -0.473426058611E+03    0.25799E-03   -0.15977E-01  7680   0.528E-01    0.968E-02
DAV:   2    -0.473426379249E+03   -0.32064E-03   -0.51491E-03 13824   0.149E-01    0.460E-02
DAV:   3    -0.473426395444E+03   -0.16194E-04   -0.55004E-05  9216   0.163E-02    0.276E-02
DAV:   4    -0.473426413571E+03   -0.18127E-04   -0.32760E-05 13824   0.880E-03    0.118E-02
DAV:   5    -0.473426428329E+03   -0.14758E-04   -0.25322E-06  9216   0.383E-03    0.596E-03
DAV:   6    -0.473426434558E+03   -0.62291E-05   -0.49858E-06 12288   0.275E-03    0.572E-03
DAV:   7    -0.473426434806E+03   -0.24848E-06   -0.54720E-06  8448   0.214E-03
  20 F= -.47342643E+03 E0= -.47342643E+03  d E =-.117976E-03  mag=    -0.0000
       N       E                     dE             d eps       ncg     rms          rms(c)
DAV:   1    -0.473426410159E+03    0.24399E-04   -0.11970E-02  7680   0.145E-01    0.265E-02
DAV:   2    -0.473426416912E+03   -0.67533E-05   -0.38640E-04 13824   0.410E-02    0.127E-02
DAV:   3    -0.473426423772E+03   -0.68602E-05   -0.45622E-06  9216   0.479E-03    0.773E-03
DAV:   4    -0.473426429334E+03   -0.55619E-05   -0.45644E-06 12672   0.359E-03    0.590E-03
DAV:   5    -0.473426431969E+03   -0.26348E-05   -0.33098E-06  9216   0.264E-03    0.308E-03
DAV:   6    -0.473426433848E+03   -0.18787E-05   -0.13262E-06 11520   0.118E-03    0.223E-03
DAV:   7    -0.473426434615E+03   -0.76749E-06   -0.82378E-07  9216   0.912E-04
  21 F= -.47342643E+03 E0= -.47342643E+03  d E =-.117785E-03  mag=    -0.0000
       N       E                     dE             d eps       ncg     rms          rms(c)
DAV:   1    -0.473426484810E+03   -0.50962E-04   -0.31164E-02  7680   0.244E-01    0.546E-02
DAV:   2    -0.473426517846E+03   -0.33035E-04   -0.94168E-04 15360   0.643E-02    0.312E-02
DAV:   3    -0.473426529512E+03   -0.11666E-04   -0.28210E-05  7680   0.127E-02    0.154E-02
DAV:   4    -0.473426528619E+03    0.89237E-06   -0.17637E-05 15360   0.707E-03    0.637E-03
DAV:   5    -0.473426526901E+03    0.17182E-05   -0.41144E-06  7680   0.289E-03    0.535E-03
DAV:   6    -0.473426524605E+03    0.22958E-05   -0.62348E-06  9984   0.215E-03    0.496E-03
DAV:   7    -0.473426518612E+03    0.59931E-05   -0.19896E-06  7680   0.144E-03    0.106E-03
DAV:   8    -0.473426516813E+03    0.17994E-05   -0.87137E-08 12288   0.507E-04    0.901E-04
DAV:   9    -0.473426516509E+03    0.30396E-06   -0.35392E-08  6528   0.275E-04
  22 F= -.47342652E+03 E0= -.47342652E+03  d E =-.818936E-04  mag=     0.0000
       N       E                     dE             d eps       ncg     rms          rms(c)
DAV:   1    -0.473426352419E+03    0.16439E-03   -0.16701E-01  7680   0.564E-01    0.127E-01
DAV:   2    -0.473426616634E+03   -0.26422E-03   -0.50516E-03 15360   0.149E-01    0.724E-02
DAV:   3    -0.473426608789E+03    0.78450E-05   -0.15154E-04  7680   0.295E-02    0.357E-02
DAV:   4    -0.473426596902E+03    0.11887E-04   -0.91743E-05 15360   0.160E-02    0.140E-02
DAV:   5    -0.473426592876E+03    0.40260E-05   -0.52597E-06  7680   0.485E-03    0.882E-03
DAV:   6    -0.473426581434E+03    0.11442E-04   -0.14830E-05 11520   0.411E-03    0.101E-02
DAV:   7    -0.473426574935E+03    0.64991E-05   -0.13987E-05  7680   0.315E-03    0.295E-03
DAV:   8    -0.473426570413E+03    0.45221E-05   -0.56079E-07 13824   0.896E-04    0.883E-04
DAV:   9    -0.473426569745E+03    0.66808E-06   -0.48178E-08  6912   0.402E-04
  23 F= -.47342657E+03 E0= -.47342657E+03  d E =-.135130E-03  mag=    -0.0000
       N       E                     dE             d eps       ncg     rms          rms(c)
DAV:   1    -0.473426611134E+03   -0.40721E-04   -0.49932E-02  7680   0.313E-01    0.108E-01
DAV:   2    -0.473426504999E+03    0.10614E-03   -0.19860E-03 15360   0.101E-01    0.451E-02
DAV:   3    -0.473426522727E+03   -0.17728E-04   -0.59527E-05  8064   0.161E-02    0.266E-02
DAV:   4    -0.473426544423E+03   -0.21697E-04   -0.25415E-05 15360   0.786E-03    0.137E-02
DAV:   5    -0.473426563963E+03   -0.19539E-04   -0.25416E-06  7680   0.375E-03    0.659E-03
DAV:   6    -0.473426573193E+03   -0.92299E-05   -0.32948E-06 12288   0.251E-03    0.448E-03
DAV:   7    -0.473426572692E+03    0.50048E-06   -0.28321E-06  7680   0.156E-03
  24 F= -.47342657E+03 E0= -.47342657E+03  d E =-.294740E-05  mag=     0.0000
       N       E                     dE             d eps       ncg     rms          rms(c)
DAV:   1    -0.473426584180E+03   -0.10988E-04   -0.14588E-02  7680   0.170E-01    0.583E-02
DAV:   2    -0.473426648051E+03   -0.63870E-04   -0.57990E-04 15360   0.546E-02    0.244E-02
DAV:   3    -0.473426618760E+03    0.29290E-04   -0.17923E-05  8256   0.892E-03    0.145E-02
DAV:   4    -0.473426603121E+03    0.15639E-04   -0.12157E-05 12480   0.561E-03    0.950E-03
DAV:   5    -0.473426595751E+03    0.73694E-05   -0.18762E-05  7680   0.501E-03    0.937E-03
DAV:   6    -0.473426590135E+03    0.56168E-05   -0.10902E-05  7680   0.301E-03    0.385E-03
DAV:   7    -0.473426587829E+03    0.23056E-05   -0.18538E-06  8448   0.173E-03    0.249E-03
DAV:   8    -0.473426587223E+03    0.60596E-06   -0.37460E-07 12288   0.885E-04
  25 F= -.47342659E+03 E0= -.47342659E+03  d E =-.174782E-04  mag=     0.0000
       N       E                     dE             d eps       ncg     rms          rms(c)
DAV:   1    -0.473426598902E+03   -0.11073E-04   -0.96721E-03  7680   0.136E-01    0.287E-02
DAV:   2    -0.473426609306E+03   -0.10404E-04   -0.27785E-04 15360   0.347E-02    0.153E-02
DAV:   3    -0.473426607285E+03    0.20215E-05   -0.66430E-06  8448   0.460E-03    0.774E-03
DAV:   4    -0.473426612219E+03   -0.49346E-05   -0.40742E-06 15360   0.360E-03    0.310E-03
DAV:   5    -0.473426615095E+03   -0.28753E-05   -0.10142E-06  7680   0.143E-03    0.265E-03
DAV:   6    -0.473426616701E+03   -0.16062E-05   -0.16767E-06  9600   0.107E-03    0.238E-03
DAV:   7    -0.473426618165E+03   -0.14640E-05   -0.53510E-07  9984   0.683E-04    0.724E-04
DAV:   8    -0.473426618563E+03   -0.39825E-06   -0.13330E-08  9600   0.245E-04
  26 F= -.47342662E+03 E0= -.47342662E+03  d E =-.313401E-04  mag=     0.0000
       N       E                     dE             d eps       ncg     rms          rms(c)
DAV:   1    -0.473426587004E+03    0.31161E-04   -0.24557E-02  7680   0.217E-01    0.457E-02
DAV:   2    -0.473426625869E+03   -0.38865E-04   -0.70533E-04 15360   0.553E-02    0.244E-02
DAV:   3    -0.473426619306E+03    0.65632E-05   -0.16870E-05  8448   0.733E-03    0.123E-02
DAV:   4    -0.473426626466E+03   -0.71597E-05   -0.10209E-05 15360   0.571E-03    0.485E-03
DAV:   5    -0.473426631111E+03   -0.46453E-05   -0.12618E-06  7680   0.229E-03    0.342E-03
DAV:   6    -0.473426634335E+03   -0.32237E-05   -0.23798E-06 13056   0.189E-03    0.346E-03
DAV:   7    -0.473426635973E+03   -0.16383E-05   -0.17243E-06  7680   0.125E-03    0.166E-03
DAV:   8    -0.473426636455E+03   -0.48233E-06   -0.36932E-07 13824   0.732E-04
  27 F= -.47342664E+03 E0= -.47342664E+03  d E =-.492323E-04  mag=    -0.0000
       N       E                     dE             d eps       ncg     rms          rms(c)
DAV:   1    -0.473426616266E+03    0.19707E-04   -0.94480E-03  7680   0.130E-01    0.215E-02
DAV:   2    -0.473426660463E+03   -0.44197E-04   -0.26774E-04 15360   0.340E-02    0.104E-02
DAV:   3    -0.473426656230E+03    0.42331E-05   -0.29605E-06  8064   0.336E-03    0.584E-03
DAV:   4    -0.473426653650E+03    0.25801E-05   -0.21515E-06 15360   0.256E-03    0.233E-03
DAV:   5    -0.473426652019E+03    0.16305E-05   -0.70289E-07  7680   0.133E-03    0.202E-03
DAV:   6    -0.473426651546E+03    0.47281E-06   -0.74119E-07 11520   0.813E-04
  28 F= -.47342665E+03 E0= -.47342665E+03  d E =-.150910E-04  mag=    -0.0000
       N       E                     dE             d eps       ncg     rms          rms(c)
DAV:   1    -0.473426650803E+03    0.12158E-05   -0.17655E-04  7680   0.178E-02    0.310E-03
DAV:   2    -0.473426652759E+03   -0.19558E-05   -0.51178E-06 14592   0.471E-03    0.164E-03
DAV:   3    -0.473426652335E+03    0.42388E-06   -0.24421E-07  8832   0.812E-04
  29 F= -.47342665E+03 E0= -.47342665E+03  d E =-.158800E-04  mag=    -0.0000
       N       E                     dE             d eps       ncg     rms          rms(c)
DAV:   1    -0.473426646537E+03    0.62219E-05   -0.49796E-03  7680   0.955E-02    0.204E-02
DAV:   2    -0.473426682268E+03   -0.35731E-04   -0.18082E-04 14208   0.288E-02    0.999E-03
DAV:   3    -0.473426678141E+03    0.41275E-05   -0.47262E-06  9216   0.381E-03    0.632E-03
DAV:   4    -0.473426676357E+03    0.17834E-05   -0.16135E-05  8448   0.393E-03    0.961E-03
DAV:   5    -0.473426671615E+03    0.47419E-05   -0.96856E-06  7680   0.270E-03    0.223E-03
DAV:   6    -0.473426668797E+03    0.28185E-05   -0.20055E-07 13824   0.844E-04    0.125E-03
DAV:   7    -0.473426667055E+03    0.17414E-05   -0.12063E-07  6912   0.544E-04    0.951E-04
DAV:   8    -0.473426666535E+03    0.51988E-06   -0.37403E-08 10752   0.311E-04
  30 F= -.47342667E+03 E0= -.47342667E+03  d E =-.142001E-04  mag=    -0.0000
       N       E                     dE             d eps       ncg     rms          rms(c)
DAV:   1    -0.473426652420E+03    0.14636E-04   -0.53234E-03  7680   0.987E-02    0.211E-02
DAV:   2    -0.473426690069E+03   -0.37649E-04   -0.19278E-04 14208   0.297E-02    0.101E-02
DAV:   3    -0.473426685675E+03    0.43934E-05   -0.23267E-06  9216   0.313E-03    0.544E-03
DAV:   4    -0.473426680809E+03    0.48668E-05   -0.15755E-06 13824   0.215E-03    0.313E-03
DAV:   5    -0.473426678063E+03    0.27451E-05   -0.14479E-06  7680   0.133E-03    0.262E-03
DAV:   6    -0.473426676247E+03    0.18167E-05   -0.89600E-07 11520   0.843E-04    0.131E-03
DAV:   7    -0.473426674279E+03    0.19681E-05   -0.93458E-08  9024   0.382E-04    0.558E-04
DAV:   8    -0.473426674135E+03    0.14332E-06   -0.50281E-09 10368   0.154E-04
  31 F= -.47342667E+03 E0= -.47342667E+03  d E =-.218000E-04  mag=     0.0000
       N       E                     dE             d eps       ncg     rms          rms(c)
DAV:   1    -0.473426666145E+03    0.81339E-05   -0.52217E-03  7680   0.994E-02    0.203E-02
DAV:   2    -0.473426666845E+03   -0.70043E-06   -0.16607E-04 15360   0.270E-02    0.978E-03
DAV:   3    -0.473426667825E+03   -0.97959E-06   -0.24603E-06  7680   0.287E-03
  32 F= -.47342667E+03 E0= -.47342667E+03  d E =0.631051E-05  mag=    -0.0000
       N       E                     dE             d eps       ncg     rms          rms(c)
DAV:   1    -0.473426600337E+03    0.66508E-04   -0.23880E-02  7680   0.213E-01    0.435E-02
DAV:   2    -0.473426640576E+03   -0.40239E-04   -0.75734E-04 15360   0.576E-02    0.215E-02
DAV:   3    -0.473426641688E+03   -0.11122E-05   -0.11439E-05  7680   0.625E-03    0.122E-02
DAV:   4    -0.473426655838E+03   -0.14150E-04   -0.10206E-05 15360   0.542E-03    0.603E-03
DAV:   5    -0.473426660373E+03   -0.45347E-05   -0.53704E-06  7680   0.293E-03    0.494E-03
DAV:   6    -0.473426665834E+03   -0.54608E-05   -0.32936E-06 13056   0.167E-03    0.273E-03
DAV:   7    -0.473426668562E+03   -0.27281E-05   -0.12995E-06  7680   0.133E-03    0.194E-03
DAV:   8    -0.473426669330E+03   -0.76752E-06   -0.24910E-07 13824   0.669E-04
  33 F= -.47342667E+03 E0= -.47342667E+03  d E =0.480569E-05  mag=     0.0000
       N       E                     dE             d eps       ncg     rms          rms(c)
DAV:   1    -0.473426655833E+03    0.12729E-04   -0.90297E-03  7680   0.131E-01    0.267E-02
DAV:   2    -0.473426701241E+03   -0.45408E-04   -0.28711E-04 14592   0.355E-02    0.129E-02
DAV:   3    -0.473426696497E+03    0.47443E-05   -0.43585E-06  8448   0.386E-03    0.725E-03
DAV:   4    -0.473426687911E+03    0.85855E-05   -0.30844E-06 14592   0.287E-03    0.275E-03
DAV:   5    -0.473426683253E+03    0.46578E-05   -0.26604E-07  8448   0.945E-04    0.161E-03
DAV:   6    -0.473426680994E+03    0.22593E-05   -0.82916E-07  9984   0.910E-04    0.213E-03
DAV:   7    -0.473426680058E+03    0.93607E-06   -0.50919E-07  7680   0.595E-04
  34 F= -.47342668E+03 E0= -.47342668E+03  d E =-.592272E-05  mag=     0.0000
